integrator      = md
dt                = 0.002
nsteps            = 1000
nstlist         = 10
cutoff-scheme   = Verlet
verlet-buffer-tolerance = 0.005
coulombtype     = PME
rcoulomb        = 1.0
rvdw            = 1.0
fourierspacing  = 0.12
pme-order       = 4
tcoupl          = v-rescale
tc-grps         = System
tau-t           = 0.1
ref-t           = 300
pcoupl          = C-rescale
pcoupltype      = isotropic
tau-p           = 2.0
ref-p           = 1.0
compressibility = 4.5e-5
constraints     = h-bonds
constraint-algorithm = lincs
nstcalcenergy   = 100
nstenergy         = 100
nstlog            = 100
nstxout           = 1
nstvout           = 0
nstxout-compressed= 0
compressed-x-grps = System
gen-vel           = no
nstfout           = 1
