integrator      = md
dt              = 0.003
nsteps          = 8667
nstlist         = 10
cutoff-scheme   = Verlet
verlet-buffer-tolerance = 0.005
coulombtype     = PME
rcoulomb        = 1.0
rvdw            = 1.0
fourierspacing  = 0.12
pme-order       = 4
tcoupl          = v-rescale
tc-grps         = System
tau-t           = 0.1
ref-t           = 300
pcoupl          = C-rescale
pcoupltype      = isotropic
tau-p           = 2.0
ref-p           = 1.0
compressibility = 4.5e-5
constraints     = h-bonds
constraint-algorithm = lincs
nstcalcenergy   = 4
nstenergy       = 88
nstlog          = 88
nstxout         = 0
nstvout         = 0
nstxout-compressed = 16
compressed-x-grps = System
gen-vel         = no
mts = yes
mts-levels = 2
mts-level2-forces = longrange-nonbonded
mts-level2-factor = 4
