water box
21087
    1SOL     OW    1   0.686   3.893   1.709  0.3154 -0.8458  0.5721
    1SOL    HW1    2   0.643   3.812   1.682  1.6789 -0.5330 -3.1157
    1SOL    HW2    3   0.655   3.958   1.646  1.2601  0.8921  1.8158
    2SOL     OW    4   3.178   1.826   5.103 -0.2474  0.5443  0.3214
    2SOL    HW1    5   3.202   1.822   5.196  0.2015 -0.5484  0.1746
    2SOL    HW2    6   3.082   1.821   5.103 -0.2680  0.9101  0.7461
    3SOL     OW    7   5.035   0.975   5.943 -0.6430 -0.6837 -0.5293
    3SOL    HW1    8   4.961   1.035   5.930 -0.4894 -0.1996  0.6887
    3SOL    HW2    9   5.003   0.911   6.007 -0.0691 -0.5734 -0.1242
    4SOL     OW   10   4.698   2.361   4.635  0.0372  0.1794  0.5934
    4SOL    HW1   11   4.694   2.443   4.684 -1.1313  0.3284  0.2806
    4SOL    HW2   12   4.783   2.364   4.590  0.4667  0.7210  1.4058
    5SOL     OW   13   2.256   1.297   1.759 -0.4655 -0.0401  0.3836
    5SOL    HW1   14   2.268   1.337   1.673 -0.6262 -0.3248  0.2237
    5SOL    HW2   15   2.211   1.363   1.811 -0.5699  0.0525  0.1766
    6SOL     OW   16   1.452   5.564   0.408 -0.1702 -0.0903  0.1206
    6SOL    HW1   17   1.527   5.590   0.461  1.0396 -1.2232 -0.9634
    6SOL    HW2   18   1.435   5.639   0.351  2.1510 -0.8800 -1.7618
    7SOL     OW   19   1.748   1.622   5.038  0.0625 -0.1418 -0.0624
    7SOL    HW1   20   1.696   1.612   4.958 -1.6508 -1.1383  1.1098
    7SOL    HW2   21   1.712   1.557   5.099  1.9445 -0.0720  1.2208
    8SOL     OW   22   0.439   1.344   0.385 -0.6394  0.2669 -0.0022
    8SOL    HW1   23   0.439   1.266   0.330  0.4539 -1.6322  2.5102
    8SOL    HW2   24   0.390   1.409   0.334 -1.0689 -1.8240 -2.4623
    9SOL     OW   25   0.700   2.938   3.212  0.6788  0.0941 -0.0046
    9SOL    HW1   26   0.636   3.009   3.216  1.6954  1.0223  0.3351
    9SOL    HW2   27   0.782   2.979   3.240  1.4124 -1.0685 -0.4143
   10SOL     OW   28   5.676   5.025   2.647  0.1049 -0.1714 -0.3216
   10SOL    HW1   29   5.732   4.975   2.706 -0.1685  1.3001  1.2428
   10SOL    HW2   30   5.735   5.089   2.607 -0.0356 -0.0737 -0.3712
   11SOL     OW   31   5.442   5.753   5.158  0.1348 -0.1267 -0.0247
   11SOL    HW1   32   5.385   5.691   5.204 -0.4499 -1.0563 -1.8544
   11SOL    HW2   33   5.528   5.741   5.197 -0.2973 -0.9664  0.7017
   12SOL     OW   34   2.176   5.690   1.017  0.2423  0.1759  0.4485
   12SOL    HW1   35   2.133   5.663   0.936 -0.9241 -0.0345  1.1119
   12SOL    HW2   36   2.164   5.785   1.021 -1.7530 -0.0660  1.4670
   13SOL     OW   37   1.782   0.679   5.499 -0.4070  1.0548  0.0781
   13SOL    HW1   38   1.801   0.678   5.405 -1.6257 -1.0081 -0.1984
   13SOL    HW2   39   1.756   0.590   5.520  1.5826  0.9510  2.7982
   14SOL     OW   40   3.157   3.679   4.192 -0.0760 -0.0571 -0.6925
   14SOL    HW1   41   3.197   3.657   4.276 -2.0213  3.3956  1.4090
   14SOL    HW2   42   3.076   3.629   4.190 -0.0903 -0.0455 -0.4268
   15SOL     OW   43   2.899   0.197   1.027 -0.1187 -0.0531  0.3078
   15SOL    HW1   44   2.910   0.103   1.012 -1.9028 -0.0338 -1.5710
   15SOL    HW2   45   2.809   0.206   1.057  0.3321  0.9863  1.4091
   16SOL     OW   46   5.403   1.899   0.070 -0.1312 -0.0258 -0.8745
   16SOL    HW1   47   5.411   1.995   0.068  0.3086 -0.0655 -0.9604
   16SOL    HW2   48   5.429   1.875   0.158  0.4560 -0.1270 -1.0691
   17SOL     OW   49   5.496   1.001   3.118  0.5869  0.3694 -0.2002
   17SOL    HW1   50   5.545   0.921   3.103 -0.3930 -0.4928  0.9935
   17SOL    HW2   51   5.408   0.981   3.086 -0.0740  0.3946  1.4906
   18SOL     OW   52   5.527   2.459   0.931  0.8078  0.3649  0.3548
   18SOL    HW1   53   5.552   2.410   0.852 -0.3076  1.2976 -0.6192
   18SOL    HW2   54   5.442   2.422   0.956 -0.7052  2.5463 -1.1607
   19SOL     OW   55   0.309   5.444   3.513  0.1420  0.2721 -0.0115
   19SOL    HW1   56   0.239   5.508   3.527 -0.4240 -0.1802 -0.7020
   19SOL    HW2   57   0.306   5.426   3.419  1.3158  0.3827 -0.0848
   20SOL     OW   58   1.021   2.418   1.123 -0.3425 -0.3420  0.3882
   20SOL    HW1   59   0.962   2.483   1.086 -0.7644  0.2363  1.9769
   20SOL    HW2   60   0.967   2.340   1.133  0.3832 -1.2946 -2.3182
   21SOL     OW   61   1.862   5.841   0.676 -0.5222  0.2751 -0.2879
   21SOL    HW1   62   1.931   5.906   0.659  1.7456 -1.7330  0.7014
   21SOL    HW2   63   1.837   5.856   0.767 -0.0493 -0.1576 -0.0815
   22SOL     OW   64   1.926   3.978   2.678 -0.7403  0.5391 -0.1683
   22SOL    HW1   65   2.017   4.007   2.691 -1.0342  1.2371  0.3974
   22SOL    HW2   66   1.934   3.890   2.640  0.1674  1.1669 -1.5063
   23SOL     OW   67   5.301   2.923   3.938  0.3335 -0.1068  0.2362
   23SOL    HW1   68   5.322   2.861   4.008 -0.8722 -1.4825 -0.5610
   23SOL    HW2   69   5.379   2.978   3.930  0.7972 -0.4063  2.1196
   24SOL     OW   70   0.774   3.487   1.608 -0.6368 -0.1281  0.3442
   24SOL    HW1   71   0.765   3.550   1.537 -0.7440  0.3001  0.7278
   24SOL    HW2   72   0.744   3.404   1.572 -0.1667 -0.0348 -0.2737
   25SOL     OW   73  -0.012   3.184   3.987  0.2452 -0.4332  0.2462
   25SOL    HW1   74   0.030   3.104   3.954 -1.4065 -1.5034  0.6175
   25SOL    HW2   75  -0.003   3.177   4.083  0.6732  0.1789  0.2557
   26SOL     OW   76   3.565   2.348   4.606 -0.1531  0.3229 -0.4170
   26SOL    HW1   77   3.485   2.397   4.622 -0.9890  0.3187 -3.8153
   26SOL    HW2   78   3.635   2.413   4.610 -0.3257  0.4550  1.8389
   27SOL     OW   79   1.994   1.308   0.383 -0.0994  0.3562  0.1703
   27SOL    HW1   80   2.037   1.240   0.331 -0.4844 -0.5947  1.0415
   27SOL    HW2   81   1.911   1.323   0.338 -0.6051 -0.7434  0.6733
   28SOL     OW   82   0.106   2.574   5.553  0.2223 -0.5321  0.3062
   28SOL    HW1   83   0.131   2.570   5.461  1.4898  2.5576  0.3909
   28SOL    HW2   84   0.180   2.616   5.596 -0.7395 -1.0430  2.5973
   29SOL     OW   85   5.345   5.261   3.861  0.1595 -0.0392 -0.0453
   29SOL    HW1   86   5.372   5.200   3.929 -2.6673 -0.2754  1.0375
   29SOL    HW2   87   5.250   5.249   3.855 -0.5208  3.9130 -0.0517
   30SOL     OW   88   4.804   4.701   0.680 -0.1367  0.6788 -0.1540
   30SOL    HW1   89   4.767   4.759   0.747 -0.5538  0.9526 -0.6160
   30SOL    HW2   90   4.844   4.761   0.617  1.7315  0.3770  0.6823
   31SOL     OW   91   0.251   2.810   2.793  0.1684  0.1060 -0.5368
   31SOL    HW1   92   0.326   2.752   2.780  1.3544  1.0502  1.5032
   31SOL    HW2   93   0.279   2.869   2.863 -1.5520  2.1515 -1.4608
   32SOL     OW   94   0.593   2.756   3.427  0.3377 -0.3069 -0.0733
   32SOL    HW1   95   0.552   2.795   3.350  0.6367  0.1950  0.0156
   32SOL    HW2   96   0.648   2.686   3.392 -0.4275 -0.8553 -0.2086
   33SOL     OW   97   1.237   0.148   1.973 -0.2176 -0.1612  0.0333
   33SOL    HW1   98   1.221   0.056   1.994  0.0757 -0.0673  0.6968
   33SOL    HW2   99   1.247   0.149   1.877  1.3827 -1.0915  0.1452
   34SOL     OW  100   1.300   0.398   4.706 -0.9601 -0.2521 -0.4461
   34SOL    HW1  101   1.242   0.420   4.779 -2.0659 -0.9548 -1.0637
   34SOL    HW2  102   1.264   0.315   4.673  0.7808 -1.0169 -0.4871
   35SOL     OW  103   3.372   1.385   5.685 -0.8358 -0.2152 -0.4851
   35SOL    HW1  104   3.368   1.473   5.646  0.6436  0.4761  0.7824
   35SOL    HW2  105   3.463   1.358   5.671 -0.6603 -0.5397  1.1823
   36SOL     OW  106   1.155   1.900   5.342  0.0823  0.2701 -0.2729
   36SOL    HW1  107   1.214   1.940   5.405 -0.0935  0.1217 -0.0155
   36SOL    HW2  108   1.158   1.959   5.266 -2.8511  2.7728  1.3255
   37SOL     OW  109   2.171   0.308   4.902  0.1978 -0.9172  0.0120
   37SOL    HW1  110   2.180   0.380   4.840 -0.2038 -1.1632 -0.3335
   37SOL    HW2  111   2.209   0.341   4.984  1.5016 -0.8791 -0.5870
   38SOL     OW  112   1.578   0.830   1.269  0.5872  0.6131  0.2656
   38SOL    HW1  113   1.600   0.844   1.177 -2.2288  1.1668 -0.4172
   38SOL    HW2  114   1.599   0.913   1.312  0.0020  1.0621 -0.3042
   39SOL     OW  115   3.623   1.430   1.662 -0.3759  0.4738 -0.1661
   39SOL    HW1  116   3.582   1.369   1.723  1.3235  0.6683  1.2740
   39SOL    HW2  117   3.701   1.384   1.630 -0.3010  1.0416 -0.8312
   40SOL     OW  118   4.929   0.016   4.133 -0.3840 -0.3395 -0.0730
   40SOL    HW1  119   4.835   0.018   4.118 -0.2656  0.5765 -0.7665
   40SOL    HW2  120   4.958   0.105   4.116  0.6350 -0.6414  0.0004
   41SOL     OW  121   2.121   1.200   1.269  0.3908 -0.3248 -0.2935
   41SOL    HW1  122   2.137   1.144   1.193 -1.4898  0.2212 -1.1437
   41SOL    HW2  123   2.026   1.209   1.273  0.4829  0.3179  1.6754
   42SOL     OW  124   5.706   5.238   1.189  0.4461  0.0651  0.1132
   42SOL    HW1  125   5.629   5.274   1.233  0.3704 -0.5018  0.4511
   42SOL    HW2  126   5.684   5.240   1.096  0.0002 -0.1467  0.2131
   43SOL     OW  127   1.386   2.536   0.101  0.2425 -0.0850  0.4633
   43SOL    HW1  128   1.425   2.480   0.168  0.0547 -0.0442  0.6091
   43SOL    HW2  129   1.302   2.494   0.080 -0.0265  0.2803  0.7707
   44SOL     OW  130   3.843   5.709   4.255  0.0225  0.1076  0.7801
   44SOL    HW1  131   3.755   5.675   4.274 -0.3562  0.6573  0.0815
   44SOL    HW2  132   3.883   5.723   4.341 -0.3355 -0.7564  1.0914
   45SOL     OW  133   3.291   5.554   2.510 -0.4893 -0.4108 -1.1188
   45SOL    HW1  134   3.261   5.584   2.425  0.5336 -0.9592 -1.6910
   45SOL    HW2  135   3.241   5.474   2.527 -1.5207  0.2993 -0.6550
   46SOL     OW  136   0.721   0.372   5.740  0.3711  0.1386  0.3504
   46SOL    HW1  137   0.755   0.343   5.655 -1.4215  0.2460 -0.4443
   46SOL    HW2  138   0.794   0.357   5.800  0.8116 -2.5817 -0.6663
   47SOL     OW  139   0.126   1.170   0.648  0.2107 -0.0369  0.4671
   47SOL    HW1  140   0.043   1.206   0.678 -0.8651 -0.3427 -1.9527
   47SOL    HW2  141   0.177   1.158   0.728 -2.9493 -2.1362  2.3599
   48SOL     OW  142   1.388   0.779   2.425  0.7483 -0.1021 -0.4695
   48SOL    HW1  143   1.327   0.851   2.406  0.4497 -0.0113  0.7752
   48SOL    HW2  144   1.356   0.707   2.371 -0.2824  0.0384 -0.0754
   49SOL     OW  145   1.160   1.532   1.931 -0.5390  0.0686 -0.1846
   49SOL    HW1  146   1.082   1.501   1.975  0.3823 -1.8872  0.1479
   49SOL    HW2  147   1.157   1.491   1.844  0.3894 -0.4757  0.0301
   50SOL     OW  148   3.350   3.176   2.137 -0.4794  0.0445  0.1558
   50SOL    HW1  149   3.295   3.113   2.183 -1.0897  0.8945  0.6270
   50SOL    HW2  150   3.436   3.135   2.132 -0.4316 -0.1255  1.9322
   51SOL     OW  151   1.428   1.218   1.175  0.1001 -0.0750 -0.0494
   51SOL    HW1  152   1.333   1.231   1.181  0.2661  1.5871 -0.4130
   51SOL    HW2  153   1.465   1.292   1.224  1.2145 -1.1273  0.7492
   52SOL     OW  154   5.320   3.489   2.276  0.1598 -0.1047 -0.0947
   52SOL    HW1  155   5.392   3.536   2.234  0.3900 -0.1925  0.1982
   52SOL    HW2  156   5.247   3.495   2.213  0.7574 -0.9767 -0.9036
   53SOL     OW  157   1.186   1.622   0.818  0.1058  0.1142  0.2562
   53SOL    HW1  158   1.170   1.535   0.853 -0.5258 -0.0974 -0.5259
   53SOL    HW2  159   1.270   1.614   0.773 -0.1125 -0.1841 -0.1017
   54SOL     OW  160   1.428   4.865   0.377 -0.2974 -0.0808  0.0324
   54SOL    HW1  161   1.495   4.933   0.385  0.1585 -0.5425  0.1710
   54SOL    HW2  162   1.470   4.786   0.410 -0.3948 -0.7169 -1.2965
   55SOL     OW  163   0.561   2.424   3.091 -0.2560  0.2432 -0.2448
   55SOL    HW1  164   0.535   2.514   3.110 -0.3592  0.1751 -0.0695
   55SOL    HW2  165   0.524   2.372   3.162  0.1957  0.1225 -0.0950
   56SOL     OW  166   0.040   0.269   4.656 -0.3400  0.1346 -0.3048
   56SOL    HW1  167  -0.035   0.210   4.648 -0.3447  0.1750 -0.5567
   56SOL    HW2  168   0.097   0.226   4.719 -0.3818 -0.0979 -0.4232
   57SOL     OW  169   2.251   5.245   2.670  0.3070 -0.0550 -0.0965
   57SOL    HW1  170   2.237   5.324   2.723  1.4093 -0.3914  0.7350
   57SOL    HW2  171   2.337   5.213   2.696  0.8606 -0.3016 -2.0542
   58SOL     OW  172   0.115   1.123   2.378 -0.2887  0.1570  0.3965
   58SOL    HW1  173   0.093   1.215   2.388  0.8226  0.5925 -0.8626
   58SOL    HW2  174   0.207   1.116   2.404 -0.3139 -0.5629  0.3316
   59SOL     OW  175   5.715   1.410   4.814  0.6689  0.3176 -0.1477
   59SOL    HW1  176   5.725   1.419   4.909  0.9381  0.3849 -0.1829
   59SOL    HW2  177   5.773   1.338   4.789  3.4794  2.6052 -0.7668
   60SOL     OW  178   1.045   4.700   0.928 -0.1263 -0.4855  0.0336
   60SOL    HW1  179   1.126   4.648   0.934 -0.1434 -0.5756 -0.4446
   60SOL    HW2  180   1.026   4.703   0.834  0.2383  0.9655 -0.0088
   61SOL     OW  181   2.703   1.867   3.551  0.2253  0.4365 -0.5946
   61SOL    HW1  182   2.609   1.860   3.535  0.0454 -2.4281  1.1076
   61SOL    HW2  183   2.717   1.959   3.576 -2.2205  0.7612 -0.2473
   62SOL     OW  184   1.271   0.249   5.467  0.3186 -0.1873 -0.3719
   62SOL    HW1  185   1.316   0.333   5.457  0.6676 -0.6372 -3.4620
   62SOL    HW2  186   1.191   0.258   5.415 -0.2593 -1.3867  0.2503
   63SOL     OW  187   4.649   5.752   1.580 -0.0408  0.0028  0.7167
   63SOL    HW1  188   4.640   5.833   1.629 -0.8032  1.4881 -1.7227
   63SOL    HW2  189   4.724   5.766   1.523  0.5319 -1.4758  1.0667
   64SOL     OW  190   2.424   0.111   0.058 -0.6358  0.0035  0.4788
   64SOL    HW1  191   2.413   0.204   0.075 -3.6949 -0.3338  0.7591
   64SOL    HW2  192   2.408   0.102  -0.036 -2.1363 -0.4106  0.7491
   65SOL     OW  193   5.335   0.633   1.324  0.0904 -0.0676 -0.4996
   65SOL    HW1  194   5.290   0.583   1.257  1.1358 -1.3867 -0.2597
   65SOL    HW2  195   5.303   0.598   1.407  0.5174 -0.0579 -0.3248
   66SOL     OW  196   5.194   2.005   5.592  0.3373 -0.6936 -0.5674
   66SOL    HW1  197   5.281   2.005   5.633 -1.1430  0.0899  2.9347
   66SOL    HW2  198   5.159   1.919   5.610 -0.1011 -0.5823 -0.8792
   67SOL     OW  199   2.058   2.002   5.799  0.0668  0.8036  0.7471
   67SOL    HW1  200   2.078   2.077   5.854 -0.6949  1.6977 -0.1620
   67SOL    HW2  201   2.142   1.977   5.761  0.3623  1.0470  1.2322
   68SOL     OW  202   3.371   0.950   0.808  0.4283  0.2548  0.8353
   68SOL    HW1  203   3.436   0.944   0.738 -2.2171 -0.6001 -1.7651
   68SOL    HW2  204   3.343   0.860   0.824  0.4976  0.5068  2.5601
   69SOL     OW  205   2.196   5.571   2.467  0.0036 -0.1139 -0.0502
   69SOL    HW1  206   2.234   5.546   2.551  1.0188  0.1414 -0.4227
   69SOL    HW2  207   2.104   5.544   2.473 -0.1181  0.5056  1.3999
   70SOL     OW  208   1.687   2.814   0.477 -0.2517 -0.5829 -0.0641
   70SOL    HW1  209   1.614   2.756   0.453 -0.0042 -1.0939  0.4272
   70SOL    HW2  210   1.735   2.767   0.544 -0.7471  0.7081  1.2453
   71SOL     OW  211   1.218   0.809   2.798  0.3402 -0.1663 -0.0547
   71SOL    HW1  212   1.312   0.824   2.805  0.7594 -2.5810  0.0409
   71SOL    HW2  213   1.206   0.715   2.811 -2.2169  0.2162  1.1208
   72SOL     OW  214   3.875   1.008   4.656 -0.1921 -0.0930 -0.8264
   72SOL    HW1  215   3.806   1.072   4.674 -1.3667 -1.3416 -0.6560
   72SOL    HW2  216   3.951   1.040   4.703 -1.6328 -0.3960  1.9003
   73SOL     OW  217   3.899   4.974   0.295  0.0684  0.1790  0.0584
   73SOL    HW1  218   3.986   4.989   0.332 -0.3416 -1.9274  2.1447
   73SOL    HW2  219   3.886   5.046   0.234  1.7148  2.7655  2.5120
   74SOL     OW  220   5.667   5.689   3.137  0.3475  0.2953  0.2994
   74SOL    HW1  221   5.575   5.707   3.153  0.4089  1.0447 -0.1490
   74SOL    HW2  222   5.682   5.718   3.047  0.5240 -1.8091 -0.3894
   75SOL     OW  223   5.150   1.101   4.823 -0.1306 -0.4284 -0.4776
   75SOL    HW1  224   5.165   1.144   4.738  2.8188 -0.7497 -0.2133
   75SOL    HW2  225   5.228   1.047   4.837 -0.4304 -0.2491  2.5396
   76SOL     OW  226   0.079   2.793   5.960  0.0822  0.2235 -0.5115
   76SOL    HW1  227   0.101   2.701   5.963 -0.1343  0.1529 -0.9252
   76SOL    HW2  228   0.114   2.830   6.041 -0.2149 -0.3068 -0.1380
   77SOL     OW  229   0.066   0.548   3.479  0.0734  0.5076 -0.4515
   77SOL    HW1  230   0.140   0.494   3.451  0.5205  0.3927  0.8647
   77SOL    HW2  231   0.105   0.612   3.539 -1.1733 -1.1701  2.3700
   78SOL     OW  232   4.689   1.393   1.749 -0.3283 -0.5254  0.3644
   78SOL    HW1  233   4.689   1.472   1.804  1.6510  0.2945 -0.7026
   78SOL    HW2  234   4.730   1.326   1.804  1.7302  0.3135 -0.0633
   79SOL     OW  235   2.078   5.528   1.705  0.3648 -0.1240  0.2311
   79SOL    HW1  236   2.169   5.517   1.677  0.0594  0.8155 -1.2532
   79SOL    HW2  237   2.084   5.553   1.797  1.8308  2.9559 -0.5685
   80SOL     OW  238   5.173   0.955   5.139 -0.1663 -0.8104 -0.7859
   80SOL    HW1  239   5.208   0.877   5.095  0.1618 -0.8554 -0.4508
   80SOL    HW2  240   5.125   0.920   5.214  0.5487 -0.6704 -0.2435
   81SOL     OW  241   1.192   1.804   1.728 -0.2337  0.2206  0.0074
   81SOL    HW1  242   1.188   1.891   1.689 -0.0882  0.5891  0.7863
   81SOL    HW2  243   1.285   1.785   1.734 -0.2763 -0.1486 -0.5046
   82SOL     OW  244   2.422   5.133   0.633 -0.3289 -0.0019  0.0601
   82SOL    HW1  245   2.371   5.055   0.653  0.2765 -0.7617 -1.2059
   82SOL    HW2  246   2.460   5.160   0.716 -0.1439 -1.3554  0.4322
   83SOL     OW  247   4.955   1.793   2.950 -0.0410  0.7659 -0.0571
   83SOL    HW1  248   4.905   1.818   2.873 -0.2195 -1.3475 -0.6851
   83SOL    HW2  249   4.893   1.746   3.006  0.7395 -0.1152  0.0948
   84SOL     OW  250   2.081   0.937   2.854 -0.2077  0.3865 -0.8979
   84SOL    HW1  251   2.123   1.001   2.913  0.9365  0.0611 -1.3409
   84SOL    HW2  252   2.058   0.864   2.911  0.9535  0.0469 -0.8500
   85SOL     OW  253   1.867   0.103   1.902  0.5019  0.3376 -0.2142
   85SOL    HW1  254   1.797   0.168   1.913  1.7604  2.0213 -1.5471
   85SOL    HW2  255   1.847   0.061   1.818  0.3957 -0.0748  0.0187
   86SOL     OW  256   0.041   5.877   1.083  0.2636 -0.0306  0.6522
   86SOL    HW1  257  -0.035   5.840   1.038 -0.9099 -0.4563  2.8191
   86SOL    HW2  258   0.088   5.801   1.118  0.6480  0.3098  0.8841
   87SOL     OW  259   2.259   1.828   0.177  0.0923 -0.0367  0.2924
   87SOL    HW1  260   2.288   1.877   0.100 -2.5301  1.2911  0.0424
   87SOL    HW2  261   2.220   1.893   0.234 -0.7993 -1.4135  1.3312
   88SOL     OW  262   1.719   4.054   2.847  0.2697  0.2638 -0.1994
   88SOL    HW1  263   1.795   4.062   2.791  0.5528 -2.0912 -0.2641
   88SOL    HW2  264   1.745   4.095   2.929  0.9790  0.9610 -0.7561
   89SOL     OW  265   0.122   1.033   4.645  1.3100 -0.4751  0.1722
   89SOL    HW1  266   0.118   1.126   4.666 -0.1116 -0.3302 -0.6635
   89SOL    HW2  267   0.209   1.021   4.607  0.3353  1.2461 -2.9225
   90SOL     OW  268   2.290   1.055   0.835 -0.3940  0.3708 -0.2721
   90SOL    HW1  269   2.342   1.135   0.829 -1.8607  1.3702 -0.0818
   90SOL    HW2  270   2.296   1.016   0.747  0.5944  0.4869 -0.2749
   91SOL     OW  271   4.116   4.288   0.599 -0.1596 -0.5978 -0.2192
   91SOL    HW1  272   4.097   4.197   0.577  0.3364 -0.7874  0.1182
   91SOL    HW2  273   4.048   4.339   0.555 -1.2661 -1.2316  0.7215
   92SOL     OW  274   5.759   0.049   5.893  0.1453  0.3302  0.0372
   92SOL    HW1  275   5.706   0.012   5.963  0.3979  1.1625  0.6777
   92SOL    HW2  276   5.849   0.031   5.919  0.2669  1.2828  0.3032
   93SOL     OW  277   0.673   4.917   3.181 -0.5473  0.2145 -0.4660
   93SOL    HW1  278   0.629   4.832   3.179  0.3702 -0.2713 -0.6911
   93SOL    HW2  279   0.765   4.897   3.160 -0.5673  1.4223 -1.9163
   94SOL     OW  280   0.499   2.782   1.674  0.1608 -0.8956  0.1342
   94SOL    HW1  281   0.460   2.822   1.753  0.7147 -0.6535  0.2890
   94SOL    HW2  282   0.466   2.693   1.674 -1.9625 -0.1725 -0.7829
   95SOL     OW  283   1.076   1.333   3.858 -0.1998 -0.1768 -0.4494
   95SOL    HW1  284   1.152   1.391   3.859  0.1834 -0.6702  0.2244
   95SOL    HW2  285   1.084   1.284   3.775  0.8260 -0.9885  0.1001
   96SOL     OW  286   0.153   4.612   2.474  0.2497  0.2190 -0.0550
   96SOL    HW1  287   0.184   4.574   2.392 -0.3992  1.6928 -1.0523
   96SOL    HW2  288   0.066   4.575   2.486  0.3363  0.0184 -0.0502
   97SOL     OW  289   5.709   2.126   1.656  0.0108  0.4007 -0.2295
   97SOL    HW1  290   5.781   2.079   1.615  0.6481  1.1772 -0.0139
   97SOL    HW2  291   5.687   2.074   1.734 -0.3856 -0.4081 -0.8560
   98SOL     OW  292   0.021   1.454   1.070  0.3685 -0.0967 -0.0531
   98SOL    HW1  293   0.069   1.437   1.151 -0.3963 -1.7226  0.1100
   98SOL    HW2  294  -0.058   1.400   1.078 -1.6642  2.6053 -0.2046
   99SOL     OW  295   0.641   1.843   2.270 -0.6448  0.4591  0.0964
   99SOL    HW1  296   0.644   1.884   2.356  0.9526  0.1759  0.1928
   99SOL    HW2  297   0.610   1.913   2.212 -1.7736  0.6368  0.8826
  100SOL     OW  298   5.427   3.983   0.748 -0.3159  0.1785  0.0917
  100SOL    HW1  299   5.458   4.058   0.698  0.5708 -0.4613 -0.3475
  100SOL    HW2  300   5.369   3.936   0.688 -1.3091  0.7889  0.5493
  101SOL     OW  301   1.450   2.196   5.194  0.3278 -0.2806  0.1894
  101SOL    HW1  302   1.454   2.190   5.289  0.6833 -0.4131  0.1661
  101SOL    HW2  303   1.538   2.173   5.164  0.4006  0.3919 -0.1400
  102SOL     OW  304   0.370   2.716   0.819 -0.1665 -0.1151  0.2466
  102SOL    HW1  305   0.364   2.810   0.832  0.5426 -0.0506  0.1533
  102SOL    HW2  306   0.358   2.678   0.906 -1.3398  0.0085  0.1498
  103SOL     OW  307   1.408   2.042   1.452  0.0091  0.3441 -0.0362
  103SOL    HW1  308   1.461   2.122   1.452  1.5816 -0.6648  0.0695
  103SOL    HW2  309   1.358   2.047   1.533 -0.4511  1.5545 -0.3719
  104SOL     OW  310   2.021   2.011   0.730  0.6997 -0.7661  0.2389
  104SOL    HW1  311   2.019   2.039   0.822 -0.4289  0.8102 -0.2213
  104SOL    HW2  312   1.989   2.087   0.682  1.9840 -1.2974 -1.5395
  105SOL     OW  313   3.305   0.153   0.785  0.1597  0.4171 -0.1604
  105SOL    HW1  314   3.309   0.071   0.736  0.3583 -0.2662  0.9705
  105SOL    HW2  315   3.382   0.151   0.841 -0.0884  1.1622  0.2126
  106SOL     OW  316   1.728   1.399   1.671 -0.2952 -0.5453 -0.2764
  106SOL    HW1  317   1.711   1.327   1.732 -2.7347  0.4950  0.3897
  106SOL    HW2  318   1.804   1.370   1.621  0.7235 -2.2225  2.0430
  107SOL     OW  319   0.646   2.355   1.274 -0.1870  0.1003 -0.5764
  107SOL    HW1  320   0.670   2.270   1.237 -0.5394 -0.4550  0.4339
  107SOL    HW2  321   0.661   2.418   1.203  0.8501 -0.6942 -1.0810
  108SOL     OW  322   2.464   0.056   0.928  0.3564  0.0329  0.4698
  108SOL    HW1  323   2.466   0.113   0.851 -0.0824 -1.5282 -0.7440
  108SOL    HW2  324   2.375   0.020   0.929  0.9514 -1.5296  0.4874
  109SOL     OW  325   2.536   4.057   1.191  0.3331 -0.3972  0.2155
  109SOL    HW1  326   2.629   4.069   1.173  0.2863 -0.1072  0.1621
  109SOL    HW2  327   2.501   4.146   1.199 -0.1797 -0.4656 -1.0122
  110SOL     OW  328   0.997   0.897   0.165  0.3176  0.6204  0.7419
  110SOL    HW1  329   1.001   0.871   0.257  1.8327  2.2188  1.1712
  110SOL    HW2  330   1.013   0.991   0.166  0.7718  0.6004 -1.2051
  111SOL     OW  331   2.456   4.394   1.532  0.0594  0.0643  0.4038
  111SOL    HW1  332   2.425   4.469   1.481  1.7346 -0.2157 -1.1217
  111SOL    HW2  333   2.380   4.336   1.538 -1.9802  2.6420  3.4258
  112SOL     OW  334   3.884   0.322   2.376  0.2833 -0.4984  0.3897
  112SOL    HW1  335   3.808   0.314   2.318  0.5510 -0.5087  0.0437
  112SOL    HW2  336   3.944   0.254   2.347  0.7605  0.0166  0.1626
  113SOL     OW  337   5.328   5.324   2.310  0.9357 -0.2677  0.0335
  113SOL    HW1  338   5.318   5.293   2.400  0.0619 -1.8856 -0.5845
  113SOL    HW2  339   5.388   5.398   2.317 -0.1731  0.5157  2.1081
  114SOL     OW  340   4.996   4.755   1.589 -0.7915  0.4121  0.4292
  114SOL    HW1  341   4.981   4.840   1.630 -1.2315  1.3150 -1.4724
  114SOL    HW2  342   4.909   4.715   1.582 -0.7391  0.3249  0.2634
  115SOL     OW  343   3.971   0.754   4.016 -0.5414  0.5087  0.3192
  115SOL    HW1  344   3.986   0.712   3.931 -1.3396  1.5038 -0.3392
  115SOL    HW2  345   3.914   0.694   4.063 -3.3201  1.6290 -1.3643
  116SOL     OW  346   0.880   2.153   2.421 -0.4621 -0.3339  0.1034
  116SOL    HW1  347   0.909   2.107   2.343 -0.6753  0.0033 -0.1781
  116SOL    HW2  348   0.834   2.230   2.388  3.6196  2.5588  0.4922
  117SOL     OW  349   0.176   2.952   4.454  0.2827 -0.2019 -0.2395
  117SOL    HW1  350   0.122   3.012   4.506 -0.1133 -0.4552 -0.3562
  117SOL    HW2  351   0.207   3.005   4.381  1.1978  0.2796  0.4711
  118SOL     OW  352   0.973   5.086   1.882  0.0380 -0.0729  0.3503
  118SOL    HW1  353   0.997   5.067   1.973  2.6717  0.7378 -0.0798
  118SOL    HW2  354   0.881   5.064   1.876 -0.3421  0.2993  3.3587
  119SOL     OW  355   5.132   4.547   1.456 -0.2246 -0.6992 -0.2429
  119SOL    HW1  356   5.087   4.610   1.400 -0.0634 -1.1547 -0.8869
  119SOL    HW2  357   5.073   4.534   1.530 -0.2154  0.2838 -0.0500
  120SOL     OW  358   1.793   0.927   2.517 -0.1800  0.0123  0.5581
  120SOL    HW1  359   1.880   0.897   2.489  0.1037  0.2820  1.1464
  120SOL    HW2  360   1.785   1.014   2.478 -0.2213 -0.0447  0.4380
  121SOL     OW  361   0.803   1.705   0.063  0.4423 -0.4414 -0.2743
  121SOL    HW1  362   0.758   1.716   0.147  0.3756  0.4512 -0.4248
  121SOL    HW2  363   0.869   1.775   0.061  0.5401 -0.5455 -0.9047
  122SOL     OW  364   5.606   0.725   5.653  0.3351 -0.1114 -0.2302
  122SOL    HW1  365   5.633   0.665   5.722 -0.2761  1.6048  1.6102
  122SOL    HW2  366   5.681   0.784   5.642 -0.8591  1.9210  1.7306
  123SOL     OW  367   5.858   2.673   5.230 -0.0140  0.0615  0.0408
  123SOL    HW1  368   5.924   2.719   5.282 -0.3699  1.3500 -0.5905
  123SOL    HW2  369   5.838   2.594   5.280 -0.1036  1.0825  1.6854
  124SOL     OW  370   4.312   3.778   0.757  0.2335  0.0456 -0.4075
  124SOL    HW1  371   4.317   3.795   0.851 -0.1213  1.9215 -0.6783
  124SOL    HW2  372   4.380   3.714   0.740  1.0679  0.5327  0.9594
  125SOL     OW  373   4.787   0.954   0.255  0.4328 -0.1001  0.1390
  125SOL    HW1  374   4.855   0.892   0.230  0.1691 -1.0752  1.6432
  125SOL    HW2  375   4.711   0.929   0.203  1.0946  0.8001 -1.3233
  126SOL     OW  376   2.021   0.886   0.231 -0.2543 -0.5580  0.0600
  126SOL    HW1  377   2.084   0.848   0.292  0.3415  2.7794  1.7695
  126SOL    HW2  378   2.030   0.833   0.151  1.2489 -3.1193  1.7626
  127SOL     OW  379   0.785   3.912   0.772  0.2997  0.0682  0.1991
  127SOL    HW1  380   0.825   3.999   0.778 -0.5134  0.4796 -0.0718
  127SOL    HW2  381   0.855   3.856   0.739  0.6028  0.8099 -0.4803
  128SOL     OW  382   0.101   5.551   5.394 -0.6058 -0.2048  0.6965
  128SOL    HW1  383   0.126   5.501   5.471  0.0139 -2.2981 -0.7747
  128SOL    HW2  384   0.182   5.591   5.363 -0.6550 -0.2074  0.5614
  129SOL     OW  385   3.586   1.294   3.764 -0.1425  0.4869 -0.1627
  129SOL    HW1  386   3.643   1.282   3.688  1.0218  1.0282  0.5995
  129SOL    HW2  387   3.579   1.207   3.803  0.9701  0.5774  0.2780
  130SOL     OW  388   1.731   1.603   1.112  0.6227  0.1236  0.3477
  130SOL    HW1  389   1.644   1.608   1.073  0.5035 -2.7599  0.0357
  130SOL    HW2  390   1.756   1.694   1.127 -1.6390  1.1063 -1.3071
  131SOL     OW  391   2.255   2.984   2.774  0.2598  0.2107 -0.4068
  131SOL    HW1  392   2.280   2.939   2.855 -0.3698  0.7957  0.1377
  131SOL    HW2  393   2.229   3.072   2.803 -0.7860  0.1681 -1.1268
  132SOL     OW  394   4.871   3.165   1.711 -0.0390 -0.2628 -0.2175
  132SOL    HW1  395   4.825   3.187   1.792 -1.4161 -0.0434 -1.0155
  132SOL    HW2  396   4.841   3.077   1.690  0.3922 -0.3593 -0.4286
  133SOL     OW  397   1.130   4.692   4.095 -0.2710  0.3296  0.1341
  133SOL    HW1  398   1.179   4.774   4.097 -0.4697  0.4452  2.0760
  133SOL    HW2  399   1.041   4.715   4.120 -0.4154 -0.4230  0.3585
  134SOL     OW  400   1.801   2.826   1.411  0.0774  0.1074 -0.0042
  134SOL    HW1  401   1.750   2.879   1.350  0.2195  1.1129  0.7400
  134SOL    HW2  402   1.742   2.811   1.485 -1.0145 -3.1921 -1.3309
  135SOL     OW  403   1.032   2.551   0.293  0.2269 -0.6094 -0.0784
  135SOL    HW1  404   1.034   2.456   0.302 -1.6180 -0.4920  2.7954
  135SOL    HW2  405   0.981   2.567   0.214 -1.9861 -2.0590  0.9765
  136SOL     OW  406   0.258   5.346   4.870  0.4280 -0.1109  0.2567
  136SOL    HW1  407   0.347   5.371   4.848  1.0096 -0.5233  2.0065
  136SOL    HW2  408   0.242   5.267   4.818  0.3129  1.0630 -1.5904
  137SOL     OW  409   3.944   1.838   1.310  0.5276  0.2132  0.4892
  137SOL    HW1  410   3.897   1.790   1.241  1.0625 -0.6448  0.7054
  137SOL    HW2  411   3.881   1.845   1.382 -0.2392  1.6324 -0.2701
  138SOL     OW  412   0.958   2.454   2.601 -0.0643 -0.0387  0.2396
  138SOL    HW1  413   1.022   2.426   2.536 -1.5585 -1.3179 -0.7552
  138SOL    HW2  414   0.993   2.421   2.684  0.6545 -0.5661 -0.2579
  139SOL     OW  415   2.731   2.725   2.237 -0.5276  0.1480  0.1666
  139SOL    HW1  416   2.749   2.669   2.312 -1.7401 -0.6507 -0.1166
  139SOL    HW2  417   2.667   2.788   2.269  0.2045  0.8572  0.2515
  140SOL     OW  418   1.356   0.455   0.665  0.6016 -0.2322  0.1904
  140SOL    HW1  419   1.261   0.455   0.652  0.2931 -0.6488  2.0940
  140SOL    HW2  420   1.367   0.468   0.760  2.4792  0.9663 -0.1416
  141SOL     OW  421   2.213   5.762   3.594 -0.0571 -0.2003 -0.1117
  141SOL    HW1  422   2.168   5.715   3.525 -0.2252  2.0782 -1.6486
  141SOL    HW2  423   2.306   5.759   3.570  0.0838 -0.8041  0.4731
  142SOL     OW  424   4.206   0.410   1.670  0.4292  0.2465 -0.8097
  142SOL    HW1  425   4.298   0.436   1.666  1.1267 -1.9641 -0.7593
  142SOL    HW2  426   4.169   0.461   1.742  2.1527 -0.2828  0.5156
  143SOL     OW  427   0.130   5.550   2.539  0.5110 -0.2159  0.2852
  143SOL    HW1  428   0.192   5.483   2.566  1.8994  0.3956 -1.2455
  143SOL    HW2  429   0.152   5.626   2.594 -0.3393 -0.6282  1.2411
  144SOL     OW  430   3.411   1.595   2.159 -0.2436 -0.3613 -0.2859
  144SOL    HW1  431   3.316   1.603   2.158 -0.3224 -1.2162 -0.8077
  144SOL    HW2  432   3.431   1.562   2.247 -0.4000  0.0688 -0.0857
  145SOL     OW  433   3.287   1.191   3.612  0.2048 -0.3649 -0.1504
  145SOL    HW1  434   3.298   1.285   3.628 -2.2692 -0.0291 -0.0016
  145SOL    HW2  435   3.321   1.149   3.692  1.3561  0.3671 -0.2339
  146SOL     OW  436   2.561   2.043   2.213  0.6532  0.0610 -0.5037
  146SOL    HW1  437   2.570   2.032   2.119  2.1547 -0.3158 -0.3533
  146SOL    HW2  438   2.505   1.971   2.241 -0.7447  0.8414 -1.2347
  147SOL     OW  439   0.502   5.812   4.468 -0.1446  0.3968 -0.4717
  147SOL    HW1  440   0.446   5.857   4.531 -0.6782 -1.4397  0.4138
  147SOL    HW2  441   0.591   5.838   4.491 -0.2335 -1.0542  1.7739
  148SOL     OW  442   0.514   5.593   0.942  0.6515  0.3405  0.2884
  148SOL    HW1  443   0.588   5.578   0.882  1.8224  2.3154  1.1495
  148SOL    HW2  444   0.534   5.677   0.983 -1.9048  0.7295  0.8583
  149SOL     OW  445   5.139   5.843   4.275  0.2959 -0.2358  0.0932
  149SOL    HW1  446   5.077   5.778   4.309  0.3256  0.0199  0.6361
  149SOL    HW2  447   5.083   5.909   4.233  0.2486 -0.4295 -0.1544
  150SOL     OW  448   3.527   3.998   4.636 -0.3027  0.1106  0.7159
  150SOL    HW1  449   3.561   3.934   4.699 -0.7905 -1.4159 -0.5175
  150SOL    HW2  450   3.592   4.069   4.637  1.4602 -1.4154  0.5209
  151SOL     OW  451   2.556   2.651   1.464 -0.0967  0.2620 -0.1732
  151SOL    HW1  452   2.600   2.716   1.518  0.5223 -0.8858  0.7537
  151SOL    HW2  453   2.619   2.631   1.394  1.1662 -1.7056  1.4001
  152SOL     OW  454   2.770   1.118   1.297  0.1390  0.0383  0.2322
  152SOL    HW1  455   2.697   1.086   1.244  0.2835 -1.3747  0.8287
  152SOL    HW2  456   2.846   1.073   1.262  0.3000 -0.5803  1.3216
  153SOL     OW  457   5.201   5.973   0.064 -0.7447  0.0075 -0.0948
  153SOL    HW1  458   5.204   5.890   0.112 -0.8795  0.0064 -0.0874
  153SOL    HW2  459   5.131   5.961   0.000 -0.9637  0.2240  0.1056
  154SOL     OW  460   3.959   0.655   3.011 -0.0150  0.6873 -0.0939
  154SOL    HW1  461   3.932   0.603   2.935 -0.2946  0.7495 -0.0364
  154SOL    HW2  462   4.020   0.598   3.058 -0.5813  0.2682  0.1541
  155SOL     OW  463   3.235   4.671   3.323  0.2186 -0.2953  0.2920
  155SOL    HW1  464   3.202   4.746   3.374 -0.1265  1.7636 -2.7271
  155SOL    HW2  465   3.177   4.667   3.247  2.4787 -1.3011 -1.4688
  156SOL     OW  466   2.013   0.070   0.557 -0.1016  0.2934  0.0078
  156SOL    HW1  467   1.996   0.143   0.618 -0.7656  0.0374  0.1344
  156SOL    HW2  468   2.107   0.074   0.541  0.3815 -0.5584  2.2554
  157SOL     OW  469   1.569   1.911   4.967 -0.1837 -0.7434 -0.2622
  157SOL    HW1  470   1.576   1.979   5.034 -0.8233  0.0810 -0.9857
  157SOL    HW2  471   1.554   1.830   5.015 -0.1466 -0.2481  0.6018
  158SOL     OW  472   1.616   5.287   0.642  0.4278  0.3112 -0.2601
  158SOL    HW1  473   1.704   5.259   0.618  0.7510  1.3521 -0.3275
  158SOL    HW2  474   1.563   5.268   0.565  0.8414  0.7868 -0.6716
  159SOL     OW  475   1.111   4.644   0.657  0.2739  0.2745 -0.1156
  159SOL    HW1  476   1.207   4.642   0.666  0.4496 -0.3400 -1.6673
  159SOL    HW2  477   1.093   4.726   0.611  0.2996 -0.5554 -1.6858
  160SOL     OW  478   1.752   1.286   3.076 -0.6440 -0.8252 -0.2764
  160SOL    HW1  479   1.717   1.376   3.072  1.5984  0.0722 -1.1202
  160SOL    HW2  480   1.763   1.261   2.984 -1.0020 -1.8865 -0.0396
  161SOL     OW  481   2.273   1.448   2.073  0.7220  0.1027 -0.0626
  161SOL    HW1  482   2.209   1.377   2.069 -0.1128  0.8879 -0.9224
  161SOL    HW2  483   2.222   1.526   2.091  1.0232  1.1977 -3.3576
  162SOL     OW  484   0.444   2.472   5.632  0.6012  0.2694 -0.4512
  162SOL    HW1  485   0.503   2.499   5.702  0.6702  1.0610 -0.8075
  162SOL    HW2  486   0.400   2.553   5.605  0.3601 -0.0790 -1.1178
  163SOL     OW  487   2.448   4.076   3.659  0.5971  0.7144  0.1943
  163SOL    HW1  488   2.443   3.986   3.629 -1.5932  0.5494  0.9147
  163SOL    HW2  489   2.469   4.070   3.752  0.8327  0.9782  0.1616
  164SOL     OW  490   1.002   1.843   2.708 -0.7892 -0.0452  0.0862
  164SOL    HW1  491   0.916   1.817   2.740 -0.0312 -2.2693  0.4749
  164SOL    HW2  492   1.023   1.779   2.640  1.2143 -0.5793  1.1273
  165SOL     OW  493   4.227   3.810   3.414 -0.2055  0.0157  0.1668
  165SOL    HW1  494   4.224   3.714   3.410 -0.1431  0.0653 -1.8844
  165SOL    HW2  495   4.135   3.837   3.408 -0.2232  0.1071  0.7486
  166SOL     OW  496   0.964   3.106   1.773 -0.1023  0.0079  0.1476
  166SOL    HW1  497   0.948   3.114   1.867  0.3379 -0.0280  0.2278
  166SOL    HW2  498   0.878   3.117   1.733  0.0780  2.9408  0.3655
  167SOL     OW  499   3.252   0.252   5.944  0.0439 -0.0710 -0.4112
  167SOL    HW1  500   3.317   0.247   6.014  0.6058 -1.7400 -1.0156
  167SOL    HW2  501   3.177   0.203   5.977 -0.4756  0.8435 -0.1950
  168SOL     OW  502   1.749   1.484   6.004 -0.1197  0.4426  0.5069
  168SOL    HW1  503   1.716   1.434   5.929  0.4811 -0.0713  0.5821
  168SOL    HW2  504   1.765   1.572   5.969 -1.7212  0.7738  0.5038
  169SOL     OW  505   1.171   0.957   4.640  0.0013  0.4079  0.4532
  169SOL    HW1  506   1.197   0.935   4.729  1.6704 -0.1600 -0.1352
  169SOL    HW2  507   1.144   1.048   4.645 -1.4226 -0.0429  1.8153
  170SOL     OW  508   5.186   2.279   3.979  0.1224 -0.1424 -0.5800
  170SOL    HW1  509   5.114   2.243   3.928  0.6531  1.3564 -2.5071
  170SOL    HW2  510   5.168   2.373   3.984  0.9906 -0.0125  0.4976
  171SOL     OW  511   0.380   0.681   5.515 -0.0089 -0.0974  0.3492
  171SOL    HW1  512   0.347   0.627   5.587  1.2358 -1.2855  0.0580
  171SOL    HW2  513   0.464   0.714   5.547  0.2643 -0.1330 -0.3306
  172SOL     OW  514   5.934   5.910   1.489  0.5425 -0.5592 -0.1063
  172SOL    HW1  515   5.991   5.939   1.560  0.6090 -0.8417 -0.0430
  172SOL    HW2  516   5.888   5.834   1.524 -1.1732  0.6746  0.4654
  173SOL     OW  517   2.006   2.329   1.147 -0.0635  0.3332 -0.0978
  173SOL    HW1  518   2.100   2.341   1.134  0.3215 -1.4776  0.7480
  173SOL    HW2  519   1.973   2.417   1.168  1.4458  0.9706 -0.2814
  174SOL     OW  520   4.312   0.961   2.248 -0.5793 -0.6622  0.0587
  174SOL    HW1  521   4.393   0.923   2.283 -0.2379  0.0977  0.1072
  174SOL    HW2  522   4.328   1.055   2.248 -1.5963 -0.4872  0.3741
  175SOL     OW  523   0.216   0.683   1.649 -0.6514 -0.6909  0.5112
  175SOL    HW1  524   0.200   0.758   1.707  0.0657 -1.4595  1.7580
  175SOL    HW2  525   0.140   0.682   1.591 -0.7983  0.8445  0.6308
  176SOL     OW  526   4.340   0.255   0.512  0.1856  0.1973 -0.0282
  176SOL    HW1  527   4.293   0.234   0.593  1.3243  0.6984  0.7816
  176SOL    HW2  528   4.279   0.310   0.463 -0.0486  0.9403  1.0540
  177SOL     OW  529   5.056   4.630   5.631  0.4090  0.4003  0.0719
  177SOL    HW1  530   5.069   4.606   5.722 -0.0811 -0.7130 -0.1296
  177SOL    HW2  531   4.961   4.627   5.619  0.2986  2.6128  0.0455
  178SOL     OW  532   0.224   2.583   5.299 -0.1396  0.0676 -0.1621
  178SOL    HW1  533   0.176   2.663   5.319 -2.2371 -1.4831  1.5355
  178SOL    HW2  534   0.236   2.585   5.204 -0.4973  2.1603 -0.2153
  179SOL     OW  535   2.227   5.465   3.852 -0.7206 -0.1131  0.1558
  179SOL    HW1  536   2.308   5.461   3.903 -0.6124 -0.8599 -0.0605
  179SOL    HW2  537   2.208   5.373   3.831 -0.1424  0.2259 -2.0925
  180SOL     OW  538   4.090   5.061   2.859  0.6995 -0.1897 -0.3359
  180SOL    HW1  539   4.005   5.104   2.867 -0.0982 -1.9089  1.3821
  180SOL    HW2  540   4.092   5.027   2.770 -0.9037 -0.9756 -0.1129
  181SOL     OW  541   1.815   1.032   2.793  0.2959 -0.3172 -0.9099
  181SOL    HW1  542   1.796   0.956   2.738  0.0654 -0.3270 -0.8166
  181SOL    HW2  543   1.909   1.025   2.812  0.4534 -0.1364 -1.5688
  182SOL     OW  544   3.061   5.954   1.812  0.1884  0.1316  0.1290
  182SOL    HW1  545   3.140   5.959   1.867 -0.1221  0.6010  0.5338
  182SOL    HW2  546   3.066   5.867   1.771  0.2467 -0.3597  1.1644
  183SOL     OW  547   2.252   1.154   4.557  0.0272 -0.2645 -0.3843
  183SOL    HW1  548   2.157   1.165   4.544  0.0169  0.4069  0.1710
  183SOL    HW2  549   2.267   1.183   4.647  0.7095 -0.7201 -0.3485
  184SOL     OW  550   0.105   1.257   1.511 -0.2322  0.1852 -0.0163
  184SOL    HW1  551   0.111   1.266   1.416 -1.1823 -0.0523 -0.1105
  184SOL    HW2  552   0.016   1.227   1.527  0.0337 -0.1587  0.9276
  185SOL     OW  553   3.480   1.168   5.458 -0.0446 -0.4923 -0.2117
  185SOL    HW1  554   3.394   1.201   5.485 -0.1989  0.0140 -1.2773
  185SOL    HW2  555   3.536   1.245   5.460  0.9519 -1.1675  2.5022
  186SOL     OW  556   4.568   0.991   4.417 -0.0651 -0.6128  0.4743
  186SOL    HW1  557   4.624   1.000   4.340 -0.1013  0.4266  0.5636
  186SOL    HW2  558   4.479   0.993   4.382 -0.0794 -2.1062  0.3494
  187SOL     OW  559   3.330   2.274   0.346  0.7086  0.5605 -0.1010
  187SOL    HW1  560   3.276   2.279   0.425  0.4510 -1.1260 -0.1357
  187SOL    HW2  561   3.272   2.235   0.280  1.6786 -0.3989 -0.4021
  188SOL     OW  562   1.370   4.097   3.091  0.3792 -0.4962  0.1738
  188SOL    HW1  563   1.358   4.052   3.174 -1.7988  0.2207  0.3166
  188SOL    HW2  564   1.332   4.038   3.026 -0.7018  0.2302  0.1158
  189SOL     OW  565   1.675   0.307   1.444 -0.1030 -0.2328 -0.4082
  189SOL    HW1  566   1.648   0.396   1.418  0.2844  0.3437  1.0855
  189SOL    HW2  567   1.770   0.313   1.452 -0.1098 -0.7026  0.0116
  190SOL     OW  568   4.036   0.969   1.794  0.0008  0.2574  0.6552
  190SOL    HW1  569   4.075   0.956   1.881  0.2416  0.5856  0.5943
  190SOL    HW2  570   4.061   0.891   1.745 -0.9140 -0.3815  1.1614
  191SOL     OW  571   1.334   0.089   3.131 -0.0998  0.4030 -0.2497
  191SOL    HW1  572   1.416   0.056   3.169 -0.3531  0.8876  0.7564
  191SOL    HW2  573   1.345   0.184   3.129 -1.5158  0.7059  2.1528
  192SOL     OW  574   1.667   5.292   1.036 -0.1552 -0.1768 -0.6662
  192SOL    HW1  575   1.725   5.232   0.989  1.5311  0.1151  0.9307
  192SOL    HW2  576   1.720   5.370   1.050 -1.5654  0.8299 -0.7080
  193SOL     OW  577   0.976   1.066   5.442 -0.4282 -0.4652 -0.4315
  193SOL    HW1  578   0.962   1.050   5.535 -1.1210  0.0047 -0.4472
  193SOL    HW2  579   0.908   1.015   5.398  0.2211 -1.1068 -0.7144
  194SOL     OW  580   1.319   3.556   2.134  0.1540  0.0752  0.3303
  194SOL    HW1  581   1.400   3.507   2.129 -0.6836 -1.3103 -0.0740
  194SOL    HW2  582   1.282   3.551   2.046  0.3032  1.9305  0.1148
  195SOL     OW  583   0.885   1.061   4.228  0.2719 -0.6210 -0.1177
  195SOL    HW1  584   0.950   1.073   4.158  1.0295 -2.1243  0.2839
  195SOL    HW2  585   0.801   1.071   4.184  0.7181  1.3399 -0.6547
  196SOL     OW  586   3.187   1.426   1.444 -0.3771  0.7325 -0.3765
  196SOL    HW1  587   3.157   1.351   1.496 -0.1333  1.1291  0.3497
  196SOL    HW2  588   3.202   1.390   1.357 -2.5863  0.4227 -0.6999
  197SOL     OW  589   1.361   2.429   0.805 -0.0576  0.3248  0.1455
  197SOL    HW1  590   1.412   2.486   0.862  0.4649 -0.0488  0.0508
  197SOL    HW2  591   1.277   2.475   0.796  0.0562  0.6680  0.7454
  198SOL     OW  592   0.997   1.113   2.115  0.0918 -0.3214 -0.2295
  198SOL    HW1  593   1.045   1.045   2.067  1.7443  1.1307 -0.7394
  198SOL    HW2  594   0.918   1.127   2.063  0.5985 -0.6049 -1.1138
  199SOL     OW  595   0.209   4.238   2.502  0.2591  0.3292 -0.1338
  199SOL    HW1  596   0.153   4.271   2.571 -0.1245 -3.7820  1.8491
  199SOL    HW2  597   0.297   4.240   2.539  0.6541  1.5979 -1.0748
  200SOL     OW  598   0.644   1.887   4.997  0.2593 -0.1547  0.5518
  200SOL    HW1  599   0.714   1.854   4.941 -0.6410 -0.1265 -0.6120
  200SOL    HW2  600   0.658   1.982   4.999  0.2220 -0.1433  0.2822
  201SOL     OW  601   2.103   0.822   0.622 -0.0586  0.0837  1.0286
  201SOL    HW1  602   2.075   0.911   0.601 -2.0060 -1.2758 -3.3154
  201SOL    HW2  603   2.198   0.827   0.627 -0.0127  2.2391 -0.6164
  202SOL     OW  604   0.860   2.107   2.168 -0.5118 -0.2298 -0.5660
  202SOL    HW1  605   0.888   2.068   2.085 -1.3600  0.5829 -1.2615
  202SOL    HW2  606   0.770   2.135   2.152  0.1006  2.2131 -0.2303
  203SOL     OW  607   5.690   3.221   1.470 -0.3457 -0.5445 -0.1774
  203SOL    HW1  608   5.602   3.249   1.495  0.4006  1.3782  0.4543
  203SOL    HW2  609   5.727   3.295   1.422  2.6707  0.9064  3.7918
  204SOL     OW  610   3.878   2.935   1.916  0.3381 -0.2040 -0.3663
  204SOL    HW1  611   3.827   2.855   1.933 -0.5845  0.7090  1.3842
  204SOL    HW2  612   3.842   2.969   1.834 -1.0060 -0.2799  0.1632
  205SOL     OW  613   3.031   5.680   5.241  0.6634 -0.1805  0.5926
  205SOL    HW1  614   3.058   5.589   5.230  3.9289  0.3661  2.7439
  205SOL    HW2  615   3.085   5.728   5.178  0.9162  0.4924  1.3078
  206SOL     OW  616   1.576   0.503   2.870  0.7189  0.4038  0.4380
  206SOL    HW1  617   1.601   0.420   2.831 -1.3163  0.2459 -0.6401
  206SOL    HW2  618   1.658   0.537   2.907  2.1988 -0.7183 -1.5739
  207SOL     OW  619   2.032   5.732   4.884  0.2665 -0.0872  0.2311
  207SOL    HW1  620   2.018   5.827   4.881 -0.4167 -0.0305  3.0393
  207SOL    HW2  621   1.950   5.697   4.917  0.7645 -1.6208 -0.0928
  208SOL     OW  622   2.594   3.604   0.069  0.0173  0.1966 -0.1995
  208SOL    HW1  623   2.537   3.585  -0.006 -1.0356  0.4925  0.5048
  208SOL    HW2  624   2.611   3.518   0.108  1.1153 -0.0420 -1.1287
  209SOL     OW  625   3.665   5.232   1.537  0.0582  0.4605 -0.2552
  209SOL    HW1  626   3.720   5.188   1.472  1.3565 -2.3609  2.5227
  209SOL    HW2  627   3.590   5.174   1.549  0.3991  0.3314  1.4941
  210SOL     OW  628   3.741   1.969   1.070 -0.2890 -0.0286 -0.4745
  210SOL    HW1  629   3.773   2.005   0.987 -0.8153 -0.1468 -0.7350
  210SOL    HW2  630   3.779   2.026   1.137  0.7474 -0.3900 -0.7480
  211SOL     OW  631   3.510   0.837   2.792 -0.3130 -0.3099 -0.2610
  211SOL    HW1  632   3.492   0.878   2.707  0.5467  0.4869 -0.0806
  211SOL    HW2  633   3.438   0.865   2.848 -0.3292  0.0388 -0.4527
  212SOL     OW  634   5.136   0.134   1.362 -0.3408 -0.6972  0.1999
  212SOL    HW1  635   5.070   0.158   1.427  1.5751  1.4456  1.5328
  212SOL    HW2  636   5.211   0.103   1.415  1.8825  2.6100 -0.6821
  213SOL     OW  637   4.252   0.137   5.217  0.5524 -0.3952  0.3234
  213SOL    HW1  638   4.262   0.043   5.235  1.5074 -0.2646  0.4915
  213SOL    HW2  639   4.301   0.180   5.287  0.4396  0.2252  0.0231
  214SOL     OW  640   0.660   0.737   0.349 -0.4859  0.3666 -0.0998
  214SOL    HW1  641   0.582   0.729   0.293  0.2915  0.7133 -1.2869
  214SOL    HW2  642   0.655   0.826   0.382 -0.5815  0.3991 -0.1966
  215SOL     OW  643   0.158   0.827   3.041  0.0139 -0.0286 -0.3887
  215SOL    HW1  644   0.126   0.737   3.043  0.3256 -0.1297  0.0223
  215SOL    HW2  645   0.208   0.833   2.959  0.1597 -0.2813 -0.3165
  216SOL     OW  646   0.072   0.846   2.403 -0.5594 -0.1639 -0.3601
  216SOL    HW1  647  -0.024   0.846   2.404 -0.5857  1.2011 -1.0389
  216SOL    HW2  648   0.096   0.938   2.394  0.8027 -0.5742 -1.2093
  217SOL     OW  649   1.147   1.668   0.543 -0.2496 -0.0841 -0.8923
  217SOL    HW1  650   1.090   1.595   0.522  0.5441 -0.8489 -0.4477
  217SOL    HW2  651   1.167   1.658   0.636 -0.3003  0.8204 -0.7717
  218SOL     OW  652   4.054   0.033   1.907  0.4423  0.6792  0.4383
  218SOL    HW1  653   3.979   0.025   1.966  0.2829  0.4505  0.2048
  218SOL    HW2  654   4.018   0.075   1.828  1.0924  3.0926  1.3236
  219SOL     OW  655   2.377   0.806   1.293 -0.0933  0.0788 -0.3064
  219SOL    HW1  656   2.324   0.842   1.222 -0.3494 -0.1143 -0.2135
  219SOL    HW2  657   2.385   0.878   1.356 -1.2018 -0.2208  0.2145
  220SOL     OW  658   5.478   0.916   5.333  0.2766 -0.4246  0.4600
  220SOL    HW1  659   5.573   0.910   5.320  0.3368  1.4126 -0.1904
  220SOL    HW2  660   5.441   0.902   5.246  0.0451  0.3864  0.4208
  221SOL     OW  661   3.371   1.808   2.728  0.0751  0.1543 -0.1775
  221SOL    HW1  662   3.305   1.822   2.796  1.6092  0.2058  1.3771
  221SOL    HW2  663   3.346   1.868   2.658 -0.0630  2.1869  1.4899
  222SOL     OW  664   2.599   5.032   3.884 -0.2253 -0.0377  0.1554
  222SOL    HW1  665   2.609   4.957   3.943  0.4122  0.1761  0.3250
  222SOL    HW2  666   2.549   5.096   3.935  1.1484  0.5295  0.8327
  223SOL     OW  667   2.516   4.348   1.246  0.2414  0.3942  0.5488
  223SOL    HW1  668   2.593   4.404   1.247  1.1205 -0.7766  1.8207
  223SOL    HW2  669   2.470   4.368   1.328 -0.5898  0.7543  0.0159
  224SOL     OW  670   2.020   2.287   3.793 -0.4761 -0.1114  0.3597
  224SOL    HW1  671   2.014   2.264   3.886 -2.5686  1.1059  0.5892
  224SOL    HW2  672   1.980   2.213   3.747  0.7677 -0.8207  0.3544
  225SOL     OW  673   4.942   2.131   3.879  0.1995 -0.2213  0.4595
  225SOL    HW1  674   4.913   2.208   3.830 -0.3865  0.0412  1.1898
  225SOL    HW2  675   4.884   2.061   3.850 -0.0035 -0.1188  0.6152
  226SOL     OW  676   0.993   1.479   5.213 -0.6069  0.6272 -0.6675
  226SOL    HW1  677   0.952   1.399   5.244  1.2901 -0.1476 -0.0249
  226SOL    HW2  678   0.961   1.547   5.273  0.8823 -0.3757  1.3776
  227SOL     OW  679   2.097   5.228   4.418 -0.2241 -0.2995 -0.0410
  227SOL    HW1  680   2.119   5.177   4.496  0.9818  1.0161  0.5123
  227SOL    HW2  681   2.003   5.213   4.407 -0.4072 -0.6085  1.6038
  228SOL     OW  682   0.939   0.430   1.904  0.5862 -0.3448 -0.3673
  228SOL    HW1  683   0.888   0.509   1.918  0.7781 -0.4270  1.0079
  228SOL    HW2  684   0.992   0.448   1.827  1.8838  1.5558  0.8866
  229SOL     OW  685   1.705   0.531   2.052 -0.3832 -0.3096 -0.4569
  229SOL    HW1  686   1.750   0.549   1.970 -0.8034  0.6258 -0.4962
  229SOL    HW2  687   1.758   0.575   2.119 -2.0570  2.3041 -0.6891
  230SOL     OW  688   3.767   1.718   3.049  0.1880 -0.2048  0.1456
  230SOL    HW1  689   3.689   1.720   2.995  0.3777  1.3948 -0.1298
  230SOL    HW2  690   3.812   1.637   3.025 -0.3259 -0.0970 -1.2392
  231SOL     OW  691   0.702   1.386   1.795  0.6060 -0.2132 -0.0786
  231SOL    HW1  692   0.774   1.439   1.830 -0.2511  0.4792  0.6769
  231SOL    HW2  693   0.642   1.449   1.755  0.0693 -0.7090 -0.0707
  232SOL     OW  694   0.658   2.866   5.705  0.0331  0.3720  0.3939
  232SOL    HW1  695   0.618   2.947   5.671 -1.2202 -0.1574  0.5437
  232SOL    HW2  696   0.717   2.837   5.636  0.7499  1.5814  0.4684
  233SOL     OW  697   5.542   4.260   1.005 -0.2612  0.0474 -0.2539
  233SOL    HW1  698   5.575   4.247   1.093  0.0075 -0.5987 -0.4456
  233SOL    HW2  699   5.450   4.233   1.009 -0.2414 -0.0082 -0.1779
  234SOL     OW  700   2.969   1.163   1.923  0.0506 -0.3640  0.0494
  234SOL    HW1  701   2.892   1.130   1.969  0.1920 -0.7876 -0.0220
  234SOL    HW2  702   2.978   1.253   1.955  0.1449 -0.6461  0.8624
  235SOL     OW  703   0.885   2.111   5.640  0.1525 -0.3863 -0.4735
  235SOL    HW1  704   0.953   2.176   5.622 -0.5340  0.0301 -1.6503
  235SOL    HW2  705   0.806   2.162   5.656 -0.3980 -0.9024 -1.4266
  236SOL     OW  706   5.300   5.429   3.387  0.0662  0.3249  0.2428
  236SOL    HW1  707   5.325   5.399   3.474  0.6125 -1.5295 -0.5080
  236SOL    HW2  708   5.374   5.405   3.331 -1.0594 -0.2378 -1.0604
  237SOL     OW  709   1.165   2.533   2.434 -0.3443  0.4193  0.6736
  237SOL    HW1  710   1.209   2.460   2.390 -1.6471 -0.0382  0.0840
  237SOL    HW2  711   1.132   2.587   2.362  0.5052  1.5655  1.1026
  238SOL     OW  712   1.322   5.881   2.608 -0.4392 -0.0474  0.4027
  238SOL    HW1  713   1.412   5.899   2.583 -0.6682 -1.0393 -1.3412
  238SOL    HW2  714   1.326   5.794   2.649 -0.6178 -0.2065  0.0893
  239SOL     OW  715   0.769   1.729   2.807 -0.1414 -0.6584 -0.1429
  239SOL    HW1  716   0.779   1.639   2.837  3.2895 -0.6004 -0.7286
  239SOL    HW2  717   0.756   1.780   2.887 -0.6114 -1.5053  0.3270
  240SOL     OW  718   2.197   1.514   1.364 -0.0189  0.4039 -0.0451
  240SOL    HW1  719   2.207   1.550   1.276  1.5050 -0.8912 -0.4346
  240SOL    HW2  720   2.108   1.479   1.365 -0.5739  1.7265 -0.5493
  241SOL     OW  721   5.058   1.658   1.378 -0.0496  0.0162  0.1613
  241SOL    HW1  722   4.987   1.687   1.320  0.6707 -0.5696 -1.0651
  241SOL    HW2  723   5.022   1.666   1.466 -1.4819  0.1578 -0.4054
  242SOL     OW  724   4.995   0.842   1.004  0.0189  0.4268  0.1241
  242SOL    HW1  725   5.030   0.921   1.045  1.6207 -1.0699  1.8384
  242SOL    HW2  726   5.044   0.833   0.923  0.7831  0.4963  0.5743
  243SOL     OW  727   0.651   2.626   2.067  0.2871 -0.3659  0.4966
  243SOL    HW1  728   0.614   2.556   2.012  0.0618 -0.3397  0.6141
  243SOL    HW2  729   0.582   2.692   2.071  1.3990  1.0388 -1.7018
  244SOL     OW  730   2.464   5.763   4.042 -0.7307 -0.3083  0.9150
  244SOL    HW1  731   2.510   5.798   3.966 -1.0209 -1.2072  0.3121
  244SOL    HW2  732   2.388   5.820   4.053 -0.0307  0.5760  1.3068
  245SOL     OW  733   0.747   1.809   1.356  0.4435 -0.1386 -0.2262
  245SOL    HW1  734   0.691   1.846   1.424  0.3618  0.4772 -0.6211
  245SOL    HW2  735   0.687   1.767   1.295  0.4421  0.1760 -0.4413
  246SOL     OW  736   4.584   0.072   1.467 -0.1419 -1.1586  0.0094
  246SOL    HW1  737   4.500   0.101   1.432 -0.9465 -0.9132  2.0079
  246SOL    HW2  738   4.603  -0.009   1.420  1.5283  1.6205 -4.7759
  247SOL     OW  739   1.969   0.517   0.133 -0.0121  0.0352 -0.4559
  247SOL    HW1  740   2.021   0.584   0.088 -1.0041  0.1409 -1.5103
  247SOL    HW2  741   1.962   0.446   0.068 -0.0476 -0.5539  0.1816
  248SOL     OW  742   0.099   3.188   5.505 -0.6433 -0.1272  0.4852
  248SOL    HW1  743   0.035   3.123   5.534 -0.3834 -0.9231 -0.6417
  248SOL    HW2  744   0.051   3.244   5.444 -0.1721 -1.0654 -0.7969
  249SOL     OW  745   2.414   2.751   1.885  0.1624  0.6663  0.0718
  249SOL    HW1  746   2.469   2.829   1.880  0.0244  1.0880  3.1657
  249SOL    HW2  747   2.459   2.693   1.945 -0.3623 -1.1762 -1.2221
  250SOL     OW  748   3.849   2.201   3.425  0.1122  0.2966  0.3549
  250SOL    HW1  749   3.795   2.142   3.373  0.2767 -1.2667  1.8777
  250SOL    HW2  750   3.864   2.277   3.368  1.6091 -1.9332 -2.4489
  251SOL     OW  751   0.412   4.630   1.218 -0.9870  0.0537 -0.1934
  251SOL    HW1  752   0.495   4.591   1.247 -0.3926  1.8404  0.6329
  251SOL    HW2  753   0.390   4.583   1.137  1.6597  0.6302 -1.3211
  252SOL     OW  754   3.371   1.322   3.296  0.3481  0.7602  0.0844
  252SOL    HW1  755   3.345   1.336   3.387  1.2036  0.2980  0.4141
  252SOL    HW2  756   3.466   1.312   3.300  0.4020  0.8514 -0.8757
  253SOL     OW  757   4.397   1.255   5.760  0.5645 -0.2349  1.0041
  253SOL    HW1  758   4.322   1.236   5.816  1.3541 -1.2046  1.7636
  253SOL    HW2  759   4.423   1.344   5.784  1.6004 -1.0339  3.0658
  254SOL     OW  760   2.497   1.179   2.506  0.1773 -0.3615 -0.4218
  254SOL    HW1  761   2.402   1.185   2.502  0.2670  0.8909 -1.7678
  254SOL    HW2  762   2.520   1.206   2.595 -0.7851 -2.2805  0.4542
  255SOL     OW  763   2.915   4.662   1.723  0.6080 -0.3583 -0.5125
  255SOL    HW1  764   2.845   4.686   1.785  1.5054  1.2889 -0.0703
  255SOL    HW2  765   2.869   4.618   1.652 -0.8389  0.2722 -0.0274
  256SOL     OW  766   5.548   0.289   1.322 -0.0395  0.4658  0.0849
  256SOL    HW1  767   5.594   0.356   1.271  0.3885  0.1458  0.0449
  256SOL    HW2  768   5.615   0.251   1.378 -0.3794  0.3864  0.4431
  257SOL     OW  769   0.144   1.283   3.909  0.4871  0.1008  0.1319
  257SOL    HW1  770   0.061   1.267   3.956  0.8407  0.9836  1.0865
  257SOL    HW2  771   0.211   1.263   3.974  1.0409 -0.5584 -0.6262
  258SOL     OW  772   5.749   0.201   1.482 -0.5138  0.2315  0.3454
  258SOL    HW1  773   5.830   0.172   1.440 -0.3590  1.7690 -0.4815
  258SOL    HW2  774   5.741   0.145   1.559  1.2117 -0.1050  0.3262
  259SOL     OW  775   5.611   1.744   2.500  0.1545 -0.2355 -0.2622
  259SOL    HW1  776   5.646   1.711   2.418 -0.2461  1.9570 -1.3893
  259SOL    HW2  777   5.684   1.790   2.541 -0.1832  0.4856 -0.4460
  260SOL     OW  778   4.513   1.099   5.290  0.4814  0.2087  0.8451
  260SOL    HW1  779   4.594   1.122   5.336  2.0004 -2.7697 -0.0245
  260SOL    HW2  780   4.524   1.136   5.202  0.8563 -0.0543  0.7783
  261SOL     OW  781   0.734   1.966   3.380  0.0789  0.3368 -0.7100
  261SOL    HW1  782   0.776   1.956   3.465 -0.4747 -0.9887 -0.5598
  261SOL    HW2  783   0.767   1.892   3.329 -0.7577  0.2524 -1.1445
  262SOL     OW  784   3.814   0.774   0.105 -0.1210 -0.1123 -0.0173
  262SOL    HW1  785   3.896   0.740   0.069  0.3269  1.2876 -0.3897
  262SOL    HW2  786   3.796   0.718   0.180  0.8480 -0.8337 -0.2993
  263SOL     OW  787   3.988   2.841   2.460 -0.0286 -0.7981  0.2408
  263SOL    HW1  788   3.915   2.839   2.521 -0.6699 -1.3855 -0.5243
  263SOL    HW2  789   3.962   2.783   2.388  0.2269  0.6733 -1.1121
  264SOL     OW  790   4.655   1.749   2.840  0.4111  0.2119 -0.0083
  264SOL    HW1  791   4.582   1.806   2.864  0.6791  0.6800 -0.2843
  264SOL    HW2  792   4.646   1.738   2.745  0.3704 -0.1994  0.0394
  265SOL     OW  793   0.630   3.628   2.781  0.6563 -0.2937 -0.7195
  265SOL    HW1  794   0.561   3.694   2.776  0.9816  0.0855 -0.2140
  265SOL    HW2  795   0.688   3.658   2.851  1.5702 -0.3823 -1.4116
  266SOL     OW  796   2.549   0.085   3.154 -0.7742  0.1205  0.6219
  266SOL    HW1  797   2.618   0.071   3.219  0.9058 -1.3394 -1.3247
  266SOL    HW2  798   2.503   0.001   3.149 -0.7491  0.1470 -0.1843
  267SOL     OW  799   4.530   2.575   3.726  0.5397 -0.0723 -0.0231
  267SOL    HW1  800   4.581   2.540   3.653 -0.8630  0.3250 -1.2359
  267SOL    HW2  801   4.440   2.575   3.695 -0.2391 -0.7248  2.0442
  268SOL     OW  802   0.133   0.481   2.672  0.1179 -0.9830  0.3177
  268SOL    HW1  803   0.129   0.412   2.738 -0.0035 -1.3339 -0.0517
  268SOL    HW2  804   0.227   0.498   2.661  0.1127  0.4079  1.9317
  269SOL     OW  805   0.884   3.491   3.728 -0.3488 -0.3116  0.4193
  269SOL    HW1  806   0.884   3.429   3.801  0.3322 -1.0228 -0.1773
  269SOL    HW2  807   0.964   3.542   3.740  0.5403 -1.4000 -0.6177
  270SOL     OW  808   5.204   5.337   0.884 -0.3555  1.0344  0.1056
  270SOL    HW1  809   5.210   5.396   0.809  0.3607  1.3589  0.4103
  270SOL    HW2  810   5.283   5.354   0.935 -1.3199  1.5657  1.4986
  271SOL     OW  811   4.666   1.330   3.906  0.1342  0.3484  0.0800
  271SOL    HW1  812   4.717   1.410   3.892  0.7601  0.0102  0.3889
  271SOL    HW2  813   4.716   1.262   3.861  0.7939 -0.2775  1.6891
  272SOL     OW  814   3.302   2.152   0.629 -0.1938  0.4986  0.1321
  272SOL    HW1  815   3.306   2.237   0.674 -1.3477  1.8973 -2.2162
  272SOL    HW2  816   3.216   2.152   0.586 -0.2638 -1.9403  0.1083
  273SOL     OW  817   1.883   1.486   0.938  0.0893 -0.5261 -0.6794
  273SOL    HW1  818   1.958   1.545   0.931 -0.5562  0.3747 -0.0862
  273SOL    HW2  819   1.825   1.527   1.002 -0.1949 -1.9925  0.0564
  274SOL     OW  820   0.954   1.724   0.915 -0.3020  0.0842 -0.3088
  274SOL    HW1  821   0.946   1.813   0.879 -2.2015 -0.0753 -0.3852
  274SOL    HW2  822   1.037   1.691   0.879 -0.1491  1.4017 -1.2456
  275SOL     OW  823   1.436   1.590   0.735 -0.2507  0.3363  0.1824
  275SOL    HW1  824   1.525   1.561   0.712 -0.4488 -0.1429  0.0002
  275SOL    HW2  825   1.446   1.633   0.819  0.1176  0.0380  0.2958
  276SOL     OW  826   2.551   3.304   2.077  0.0405  0.0969  0.4907
  276SOL    HW1  827   2.575   3.323   1.986 -1.8929 -1.2638 -0.3859
  276SOL    HW2  828   2.462   3.336   2.085 -0.2067 -0.8003  1.5677
  277SOL     OW  829   5.670   2.441   0.539  0.5900  0.0042  0.5301
  277SOL    HW1  830   5.685   2.505   0.609 -1.0157  0.6240  0.3437
  277SOL    HW2  831   5.710   2.482   0.461 -1.8583  1.6340  0.0348
  278SOL     OW  832   5.815   1.407   1.295  0.5832  0.3507 -0.6976
  278SOL    HW1  833   5.873   1.477   1.266  2.5430 -0.6807  0.5468
  278SOL    HW2  834   5.831   1.399   1.389 -0.3850 -1.0697 -0.6143
  279SOL     OW  835   4.670   1.720   1.486 -0.4275  0.0819  1.0008
  279SOL    HW1  836   4.675   1.643   1.429 -0.1933 -0.8800  2.2813
  279SOL    HW2  837   4.587   1.762   1.462  0.2129  0.3907 -0.8531
  280SOL     OW  838   0.300   1.165   2.020 -0.6105 -0.1052 -0.4974
  280SOL    HW1  839   0.365   1.209   1.965  1.3166  1.1185  2.4905
  280SOL    HW2  840   0.331   1.074   2.025  0.3030  0.2162  0.0182
  281SOL     OW  841   0.099   0.504   0.780 -0.1923  0.1047  0.5516
  281SOL    HW1  842   0.150   0.553   0.716  0.4973 -0.4855  0.6409
  281SOL    HW2  843   0.152   0.507   0.860 -0.7954  0.3837  0.9470
  282SOL     OW  844   0.500   4.532   1.537  0.4046 -0.8763 -0.3129
  282SOL    HW1  845   0.411   4.512   1.564  0.5748 -1.6196 -0.2859
  282SOL    HW2  846   0.499   4.626   1.518  0.1709 -0.3785  1.8549
  283SOL     OW  847   2.714   2.329   2.362 -0.6188 -0.0184 -0.4297
  283SOL    HW1  848   2.713   2.403   2.423 -0.5283  1.8116 -2.4973
  283SOL    HW2  849   2.650   2.268   2.398 -1.2408  1.3842  1.0102
  284SOL     OW  850   4.358   0.190   1.374  0.3604  0.5372  0.3528
  284SOL    HW1  851   4.270   0.196   1.338  0.5310  0.7875 -0.0369
  284SOL    HW2  852   4.416   0.206   1.299  0.7746 -1.0103  0.3101
  285SOL     OW  853   1.458   3.210   2.536  0.3384 -0.8806  0.3652
  285SOL    HW1  854   1.493   3.299   2.533  2.2434 -1.5849  0.8767
  285SOL    HW2  855   1.519   3.158   2.484 -0.2828 -2.0545  0.7730
  286SOL     OW  856   4.345   2.499   0.930  0.2908 -0.2409 -0.0547
  286SOL    HW1  857   4.384   2.579   0.966 -0.6856  0.5233 -0.6465
  286SOL    HW2  858   4.420   2.443   0.910  1.1048  1.1900 -1.2038
  287SOL     OW  859   4.511   5.296   0.251  0.4820  0.0746  0.3844
  287SOL    HW1  860   4.607   5.290   0.253  0.5700  1.1013 -0.3711
  287SOL    HW2  861   4.493   5.386   0.224 -0.6727 -0.5595 -1.1088
  288SOL     OW  862   4.791   2.668   1.025  0.2025 -0.3364  0.0859
  288SOL    HW1  863   4.700   2.672   1.054 -0.6484 -0.0039 -2.3700
  288SOL    HW2  864   4.812   2.756   0.996  1.1850 -0.5035  0.2346
  289SOL     OW  865   1.215   5.582   4.610 -0.3859 -0.2101 -0.0830
  289SOL    HW1  866   1.163   5.591   4.690 -0.6561  0.0388 -0.2857
  289SOL    HW2  867   1.298   5.625   4.631  0.1649 -1.5542  0.6118
  290SOL     OW  868   1.870   5.624   2.052  0.2093  0.0294 -0.0166
  290SOL    HW1  869   1.853   5.543   2.102 -1.8332 -0.2130 -0.9798
  290SOL    HW2  870   1.814   5.689   2.093  1.3158  0.8006  0.3021
  291SOL     OW  871   0.509   5.675   2.890 -0.1648 -0.4471 -0.0085
  291SOL    HW1  872   0.536   5.649   2.802  1.5380  0.4933  0.2004
  291SOL    HW2  873   0.516   5.770   2.891 -2.9496 -0.1669  0.3133
  292SOL     OW  874   1.929   2.534   1.786  0.1947  0.2562  0.1183
  292SOL    HW1  875   2.013   2.572   1.815  0.2183 -0.1286  0.5609
  292SOL    HW2  876   1.954   2.470   1.720  0.2524  0.1392  0.2519
  293SOL     OW  877   5.132   1.094   5.462 -0.4947 -0.0753  0.5485
  293SOL    HW1  878   5.060   1.157   5.456 -0.4375  0.1930  2.2505
  293SOL    HW2  879   5.093   1.017   5.504 -0.4148 -1.0026 -0.9751
  294SOL     OW  880   5.064   1.668   2.048 -0.4520  0.1625  0.1834
  294SOL    HW1  881   5.159   1.653   2.040 -0.5896 -0.5644 -0.1132
  294SOL    HW2  882   5.024   1.597   1.998 -1.2218 -0.8837  2.2073
  295SOL     OW  883   1.647   2.144   0.988  0.4223  0.0305  0.0692
  295SOL    HW1  884   1.577   2.129   0.924  0.5963  1.1359 -0.3911
  295SOL    HW2  885   1.627   2.229   1.026  1.3545  0.2207  0.1525
  296SOL     OW  886   1.214   3.656   3.447  0.9429 -0.2966 -0.1757
  296SOL    HW1  887   1.278   3.695   3.506 -0.5957  1.0160  0.7193
  296SOL    HW2  888   1.230   3.562   3.453  1.7012 -0.1021  1.3295
  297SOL     OW  889   4.267   0.273   5.643 -0.3161  0.0848  0.1554
  297SOL    HW1  890   4.199   0.327   5.684  0.1029 -0.1134  1.1276
  297SOL    HW2  891   4.315   0.334   5.587 -2.7650 -0.2318 -2.4866
  298SOL     OW  892   5.448   5.334   1.029 -0.1719 -0.4071 -0.5776
  298SOL    HW1  893   5.417   5.245   1.049  0.5696 -0.1769  1.9045
  298SOL    HW2  894   5.515   5.321   0.962 -0.7078 -1.6204 -0.9104
  299SOL     OW  895   2.113   0.869   3.946  0.6829 -0.3256 -0.9390
  299SOL    HW1  896   2.200   0.857   3.908  1.1206 -1.3307  0.3329
  299SOL    HW2  897   2.126   0.864   4.040 -0.5411  1.0572 -0.6510
  300SOL     OW  898   1.296   5.176   0.782 -0.2337 -0.3395 -0.6577
  300SOL    HW1  899   1.264   5.257   0.743 -2.0202 -0.0944  1.1504
  300SOL    HW2  900   1.339   5.203   0.863  1.5694 -1.0116 -1.3351
  301SOL     OW  901   3.864   0.892   3.085 -0.1639  0.6254  0.4140
  301SOL    HW1  902   3.898   0.804   3.067 -0.9256 -0.4689  3.6648
  301SOL    HW2  903   3.807   0.911   3.010  0.3254 -1.4455 -0.5705
  302SOL     OW  904   1.541   0.606   1.697 -0.4295 -0.7989 -0.0091
  302SOL    HW1  905   1.547   0.642   1.609 -0.7675 -0.9889 -0.1120
  302SOL    HW2  906   1.463   0.645   1.735  1.4176  1.8226  1.4023
  303SOL     OW  907   1.350   2.015   2.126  0.1994 -0.3729  0.0015
  303SOL    HW1  908   1.277   1.959   2.102  0.7812 -0.8399 -0.7004
  303SOL    HW2  909   1.358   2.005   2.221  0.3174 -1.5167 -0.1133
  304SOL     OW  910   5.224   2.484   2.553  0.0296  0.2508  1.0492
  304SOL    HW1  911   5.214   2.529   2.469  1.8658  2.0284  1.7076
  304SOL    HW2  912   5.315   2.457   2.556  0.0243  0.2980  2.5060
  305SOL     OW  913   0.368   0.899   2.095 -0.1260 -0.1471  0.2903
  305SOL    HW1  914   0.298   0.873   2.155 -0.3513 -0.1960  0.0119
  305SOL    HW2  915   0.396   0.818   2.054  0.5368 -0.2149  0.8633
  306SOL     OW  916   2.713   5.218   5.142  0.0677  0.1741  0.2569
  306SOL    HW1  917   2.712   5.153   5.071  0.5213 -0.8420  1.1462
  306SOL    HW2  918   2.767   5.289   5.108  0.6160 -0.4765 -0.2797
  307SOL     OW  919   1.965   1.332   2.614 -0.1229 -0.3971 -0.2080
  307SOL    HW1  920   1.943   1.261   2.553 -0.6544 -0.5758  0.1800
  307SOL    HW2  921   1.901   1.323   2.685 -1.4896  1.6867 -1.0794
  308SOL     OW  922   1.256   2.298   1.198  0.1264 -0.1259 -0.0706
  308SOL    HW1  923   1.165   2.325   1.185  0.1881 -0.2971 -0.8868
  308SOL    HW2  924   1.307   2.378   1.189  0.1387 -0.1876 -0.5550
  309SOL     OW  925   5.505   0.995   4.617  0.4673  0.2793 -0.5628
  309SOL    HW1  926   5.529   1.037   4.534 -0.7115  0.6752 -0.7220
  309SOL    HW2  927   5.423   0.949   4.597  1.1398 -1.1956 -0.1044
  310SOL     OW  928   2.741   5.913   2.990  0.3832 -0.0276 -0.1095
  310SOL    HW1  929   2.653   5.951   2.996  0.2351 -0.4083  0.1609
  310SOL    HW2  930   2.800   5.987   3.007  0.1041  0.1448  0.1199
  311SOL     OW  931   1.116   5.721   4.387  0.0148 -0.2475 -0.1714
  311SOL    HW1  932   1.027   5.706   4.357 -0.6228  1.9023  0.4702
  311SOL    HW2  933   1.129   5.658   4.458 -1.2655 -0.1089  0.2033
  312SOL     OW  934   3.646   0.879   2.102 -0.3954 -0.1995  0.4950
  312SOL    HW1  935   3.737   0.908   2.109  0.1375 -1.6861  0.1933
  312SOL    HW2  936   3.595   0.954   2.131  0.9094  0.7762  0.3944
  313SOL     OW  937   0.170   1.576   2.416  0.7187 -0.0410  0.2741
  313SOL    HW1  938   0.137   1.567   2.326  1.5085  1.3714 -0.1875
  313SOL    HW2  939   0.262   1.599   2.405  0.9223 -0.2380  1.4680
  314SOL     OW  940   2.702   1.184   2.307 -0.1455  0.1130 -0.0185
  314SOL    HW1  941   2.661   1.250   2.251  0.6986  0.6397 -0.0406
  314SOL    HW2  942   2.642   1.175   2.381 -0.5166  0.5410 -0.2586
  315SOL     OW  943   0.807   2.814   5.490 -0.2869  0.3580 -0.4622
  315SOL    HW1  944   0.864   2.763   5.432  2.0203  0.9764  1.1408
  315SOL    HW2  945   0.743   2.853   5.430 -0.8258 -2.5830 -1.9985
  316SOL     OW  946   1.760   0.346   3.234  0.1500 -0.1769  0.8229
  316SOL    HW1  947   1.838   0.318   3.188  0.9211 -0.9379  2.5062
  316SOL    HW2  948   1.777   0.324   3.326 -0.9606  1.9835  1.6232
  317SOL     OW  949   2.238   3.130   4.034 -0.4310  0.4064  0.4832
  317SOL    HW1  950   2.239   3.146   3.940 -2.0755 -0.1545  0.3418
  317SOL    HW2  951   2.219   3.037   4.043  0.6303  0.2560  1.3694
  318SOL     OW  952   0.764   0.908   2.347  0.1324  0.1094  1.3069
  318SOL    HW1  953   0.820   0.970   2.394  0.3357  0.6437  0.3978
  318SOL    HW2  954   0.750   0.949   2.261 -0.9822 -0.4063  1.2252
  319SOL     OW  955   5.750   1.456   1.596  0.4083  0.4260  0.1268
  319SOL    HW1  956   5.838   1.487   1.576  1.2935 -1.2149  1.2561
  319SOL    HW2  957   5.692   1.522   1.558  2.0568  0.6627 -2.1764
  320SOL     OW  958   3.956   3.232   1.448 -0.0384 -0.2085  0.0913
  320SOL    HW1  959   4.048   3.259   1.438  0.4132 -2.3003 -2.2286
  320SOL    HW2  960   3.911   3.272   1.374 -0.9040  0.2595  0.8510
  321SOL     OW  961   2.488   0.659   3.447  0.5423  0.3699 -0.0161
  321SOL    HW1  962   2.414   0.608   3.481 -0.5336  1.5011 -0.5877
  321SOL    HW2  963   2.527   0.699   3.525  0.5520 -0.2072  0.2868
  322SOL     OW  964   2.197   3.543   1.969 -0.4973 -0.9420 -0.4698
  322SOL    HW1  965   2.247   3.624   1.980  0.0393 -1.1495 -1.2743
  322SOL    HW2  966   2.256   3.484   1.922 -0.6437 -2.0470  0.6817
  323SOL     OW  967   5.623   4.331   4.129 -0.1796 -0.9693 -0.3414
  323SOL    HW1  968   5.628   4.239   4.106 -0.7356 -0.4525 -2.7469
  323SOL    HW2  969   5.704   4.369   4.096 -0.0532 -0.5375  0.4371
  324SOL     OW  970   2.557   0.214   1.905  0.0384  0.1761 -0.2242
  324SOL    HW1  971   2.549   0.269   1.827 -2.1896  0.3931  0.0768
  324SOL    HW2  972   2.636   0.163   1.891 -0.1258  0.4376 -2.4807
  325SOL     OW  973   3.078   3.157   4.348 -0.3343 -0.0549 -0.6030
  325SOL    HW1  974   3.080   3.228   4.283 -1.0593 -0.3041 -0.9108
  325SOL    HW2  975   3.089   3.077   4.297  1.3244 -0.1446 -0.1665
  326SOL     OW  976   0.743   4.715   5.528 -0.0163 -0.1460  0.7196
  326SOL    HW1  977   0.823   4.700   5.577  0.3226 -1.7159 -0.2441
  326SOL    HW2  978   0.701   4.629   5.523 -1.8702  0.6693  1.3384
  327SOL     OW  979   0.123   0.938   1.817  0.2550  0.6439  0.3627
  327SOL    HW1  980   0.099   0.933   1.909 -0.3679  2.2552  0.3108
  327SOL    HW2  981   0.041   0.921   1.770  0.5483 -0.0725  0.0929
  328SOL     OW  982   3.452   0.773   3.228 -0.0944  0.0482  0.5555
  328SOL    HW1  983   3.395   0.696   3.219  0.1564  0.0452 -1.2988
  328SOL    HW2  984   3.393   0.848   3.220 -0.2772  0.0904  1.9597
  329SOL     OW  985   3.168   2.101   2.184 -1.0834 -0.2652  0.1501
  329SOL    HW1  986   3.100   2.165   2.205 -2.5550 -1.6751 -0.0847
  329SOL    HW2  987   3.248   2.153   2.172 -1.4772  1.2071  3.0330
  330SOL     OW  988   3.112   4.122   2.701  0.1346 -0.1043 -0.4380
  330SOL    HW1  989   3.116   4.060   2.774 -0.1799  0.3137 -0.0515
  330SOL    HW2  990   3.152   4.202   2.736  0.4227 -0.0517 -0.8877
  331SOL     OW  991   2.667   5.043   2.337 -0.4060 -0.4006 -0.5325
  331SOL    HW1  992   2.627   5.066   2.253 -1.3758 -0.0376  0.0103
  331SOL    HW2  993   2.613   4.970   2.369 -1.1268  0.5770  0.5545
  332SOL     OW  994   5.819   0.748   4.083 -0.4026  0.0757  0.1127
  332SOL    HW1  995   5.724   0.746   4.066  0.0050  0.9345 -2.9439
  332SOL    HW2  996   5.848   0.658   4.065 -0.6306 -0.2232  1.1893
  333SOL     OW  997   2.205   5.947   4.067 -0.0554  0.0283 -0.1678
  333SOL    HW1  998   2.157   5.931   3.986 -1.0240  0.1047  0.3830
  333SOL    HW2  999   2.265   6.019   4.046  0.8511 -1.0039 -1.2575
  334SOL     OW 1000   0.995   0.792   0.452  0.0123  0.1595 -0.7071
  334SOL    HW1 1001   0.981   0.723   0.517  0.3768  0.7002 -0.0384
  334SOL    HW2 1002   0.976   0.873   0.499  0.1288  0.5508 -1.3224
  335SOL     OW 1003   4.681   2.808   3.193  0.0283 -0.1443  0.0184
  335SOL    HW1 1004   4.688   2.889   3.142  0.6304 -2.3646 -3.8543
  335SOL    HW2 1005   4.770   2.791   3.222  0.3879 -0.5223 -1.2189
  336SOL     OW 1006   2.584   0.585   2.026 -0.7340  0.0633  0.4320
  336SOL    HW1 1007   2.631   0.636   1.960 -0.6122 -0.8594 -0.2214
  336SOL    HW2 1008   2.493   0.586   1.995 -0.4193 -1.7551 -0.7150
  337SOL     OW 1009   0.447   2.813   2.456 -0.0920 -0.4328  0.0816
  337SOL    HW1 1010   0.522   2.860   2.419  0.1078 -1.8222 -1.3645
  337SOL    HW2 1011   0.451   2.726   2.417 -1.6780 -0.9821  1.0491
  338SOL     OW 1012   1.389   3.317   4.483 -0.3531  0.3560  0.0581
  338SOL    HW1 1013   1.385   3.412   4.473 -1.3869  0.1865 -1.8201
  338SOL    HW2 1014   1.427   3.287   4.400 -0.5743 -0.8881  0.3983
  339SOL     OW 1015   3.050   0.530   5.699 -0.0356 -0.6765  0.7026
  339SOL    HW1 1016   3.014   0.469   5.764 -0.1987 -0.9895  0.3183
  339SOL    HW2 1017   3.003   0.509   5.618  0.6731 -0.7650  0.3146
  340SOL     OW 1018   0.306   5.949   0.823  0.1656  0.1503 -0.0700
  340SOL    HW1 1019   0.312   5.963   0.918  0.2288 -0.7827  0.0717
  340SOL    HW2 1020   0.221   5.987   0.798 -0.3865 -0.6248  0.5641
  341SOL     OW 1021   5.416   4.699   4.184 -0.2221 -0.0463  1.2325
  341SOL    HW1 1022   5.417   4.605   4.206  0.2310 -0.9508 -2.1218
  341SOL    HW2 1023   5.505   4.729   4.202 -0.4894 -0.1016  2.7585
  342SOL     OW 1024   3.088   1.605   0.782  0.0183 -0.5340  0.1369
  342SOL    HW1 1025   3.037   1.533   0.818 -1.2561  0.9328  1.3891
  342SOL    HW2 1026   3.120   1.572   0.697 -2.5057 -1.7355 -0.4195
  343SOL     OW 1027   0.887   2.321   4.399  0.2024  0.1794  0.3539
  343SOL    HW1 1028   0.953   2.380   4.361  2.4801 -1.5795  1.3475
  343SOL    HW2 1029   0.809   2.337   4.346  2.0060  0.8177 -2.3733
  344SOL     OW 1030   5.943   1.885   2.558 -0.6691 -0.1324  0.1180
  344SOL    HW1 1031   6.038   1.892   2.542 -0.7414 -0.4032 -0.4358
  344SOL    HW2 1032   5.935   1.820   2.628 -0.4670 -0.3387 -0.0513
  345SOL     OW 1033   1.372   2.173   2.746 -0.7276 -0.4619 -0.3391
  345SOL    HW1 1034   1.462   2.142   2.734 -0.7785 -0.5841 -0.4009
  345SOL    HW2 1035   1.317   2.099   2.721 -0.8420 -0.4633 -0.0882
  346SOL     OW 1036   2.283   0.281   2.699  0.3335  0.1496  0.0857
  346SOL    HW1 1037   2.261   0.199   2.656  0.7999 -0.4396  0.9428
  346SOL    HW2 1038   2.268   0.348   2.632 -2.0442 -0.3861 -0.0129
  347SOL     OW 1039   3.474   5.947   2.674  0.1558 -0.3874 -0.2696
  347SOL    HW1 1040   3.543   5.905   2.725 -0.9568 -0.6970  1.0210
  347SOL    HW2 1041   3.397   5.891   2.686 -0.4175  0.1126 -1.4310
  348SOL     OW 1042   4.468   5.827   2.604 -0.1211  0.2467  0.2314
  348SOL    HW1 1043   4.532   5.878   2.554  0.6387 -0.0441  0.8753
  348SOL    HW2 1044   4.477   5.738   2.570  0.1788  0.1085  0.6606
  349SOL     OW 1045   2.674   2.678   0.504 -0.1048 -0.3309  0.0580
  349SOL    HW1 1046   2.668   2.628   0.586 -2.0272 -1.1623 -0.5195
  349SOL    HW2 1047   2.734   2.750   0.524  1.8112 -2.1514  1.2902
  350SOL     OW 1048   5.579   2.636   3.214 -0.2592 -0.1910 -0.1192
  350SOL    HW1 1049   5.634   2.668   3.142  0.2860 -0.2902  0.2520
  350SOL    HW2 1050   5.541   2.715   3.252  0.3346 -0.0516  0.1910
  351SOL     OW 1051   5.790   0.712   1.897  0.0955  0.2784 -0.9048
  351SOL    HW1 1052   5.744   0.747   1.820  0.6446  0.6811 -1.0570
  351SOL    HW2 1053   5.835   0.634   1.864  0.5004  0.5687 -1.0455
  352SOL     OW 1054   4.638   3.909   1.848 -0.2182 -0.2513  0.2833
  352SOL    HW1 1055   4.725   3.868   1.858 -0.3679 -0.7499 -0.3229
  352SOL    HW2 1056   4.615   3.892   1.756 -0.4732  0.8529  0.1335
  353SOL     OW 1057   1.438   3.054   4.563  0.2922  0.4200  0.2069
  353SOL    HW1 1058   1.399   3.133   4.525 -0.6253 -0.7798 -1.5260
  353SOL    HW2 1059   1.387   2.982   4.525  2.0146 -1.0765  0.5938
  354SOL     OW 1060   3.288   0.733   3.482  0.4110  0.0006 -0.3752
  354SOL    HW1 1061   3.194   0.723   3.468  0.5178 -2.0228  0.0590
  354SOL    HW2 1062   3.313   0.808   3.428 -1.6601  1.4357  0.5426
  355SOL     OW 1063   1.076   1.184   1.471  0.0279 -0.4090 -0.1511
  355SOL    HW1 1064   0.988   1.216   1.491  0.5076 -0.0217  1.4773
  355SOL    HW2 1065   1.131   1.218   1.542  1.3092 -1.4730 -0.5915
  356SOL     OW 1066   0.697   5.974   1.671  0.3421 -0.0889  0.4803
  356SOL    HW1 1067   0.665   5.917   1.601 -0.8624  0.6093  0.4262
  356SOL    HW2 1068   0.617   6.008   1.711  1.0074 -0.5647  2.2860
  357SOL     OW 1069   2.119   1.568   1.724 -0.0862  0.0207  0.4035
  357SOL    HW1 1070   2.068   1.598   1.799  0.9008  2.3461  0.2335
  357SOL    HW2 1071   2.183   1.638   1.710  0.8587 -1.1716 -1.5478
  358SOL     OW 1072   0.820   4.353   3.553  0.6119 -0.4018  0.3651
  358SOL    HW1 1073   0.797   4.446   3.543  0.1782 -0.5601 -0.1518
  358SOL    HW2 1074   0.913   4.354   3.574  1.4296  0.0614 -2.7210
  359SOL     OW 1075   2.521   5.297   4.357 -0.4035 -0.3938  0.2449
  359SOL    HW1 1076   2.617   5.289   4.358 -0.2449  0.5612 -2.1246
  359SOL    HW2 1077   2.490   5.207   4.366  0.6700 -0.6801  1.4880
  360SOL     OW 1078   1.323   0.798   5.388 -0.4284 -0.1220  0.0497
  360SOL    HW1 1079   1.350   0.856   5.459  1.8656  0.0858 -0.9277
  360SOL    HW2 1080   1.235   0.829   5.364 -0.8748  0.3873  2.1260
  361SOL     OW 1081   4.239   2.412   3.055 -0.6375 -0.6682 -0.3911
  361SOL    HW1 1082   4.213   2.433   3.144  1.3404  1.6683 -0.2327
  361SOL    HW2 1083   4.250   2.498   3.013  2.6854 -1.4909 -1.5104
  362SOL     OW 1084   5.906   0.398   0.985  0.2845  0.1105  0.1416
  362SOL    HW1 1085   5.941   0.379   1.072  0.6037  1.6101  0.3673
  362SOL    HW2 1086   5.983   0.398   0.928 -0.0573 -2.0475 -0.4002
  363SOL     OW 1087   1.992   1.364   1.579 -0.7395  0.0618  0.0767
  363SOL    HW1 1088   2.007   1.335   1.489 -0.6994 -0.0957  0.1343
  363SOL    HW2 1089   2.065   1.424   1.597 -0.2989 -0.5276  0.2776
  364SOL     OW 1090   0.352   0.852   0.765 -0.4355  0.2735  0.1002
  364SOL    HW1 1091   0.368   0.879   0.855 -0.7872 -0.3775  0.3688
  364SOL    HW2 1092   0.398   0.768   0.757 -0.3877  0.3380 -0.3310
  365SOL     OW 1093   3.695   0.330   1.436 -0.1272  0.3810 -0.3662
  365SOL    HW1 1094   3.676   0.236   1.439 -2.2535  0.7489  1.9743
  365SOL    HW2 1095   3.724   0.347   1.347  0.6549 -2.5410 -0.7538
  366SOL     OW 1096   2.773   0.100   3.394  0.1743 -0.0161  0.2855
  366SOL    HW1 1097   2.862   0.125   3.368  0.0758 -0.5680 -0.5980
  366SOL    HW2 1098   2.740   0.177   3.440  1.1440  0.1566  0.7318
  367SOL     OW 1099   1.180   2.774   0.393  0.0238 -0.0234  0.5102
  367SOL    HW1 1100   1.216   2.742   0.475  0.3393 -0.9284  0.0253
  367SOL    HW2 1101   1.172   2.697   0.338  0.8562  0.7366 -0.7082
  368SOL     OW 1102   2.021   1.906   1.880  0.5072  0.3548 -0.6231
  368SOL    HW1 1103   2.027   1.943   1.968  0.5687 -1.0285 -0.0213
  368SOL    HW2 1104   2.112   1.889   1.854  0.4391 -0.1029 -0.5684
  369SOL     OW 1105   1.038   1.319   4.301 -0.7414 -0.1575 -0.5587
  369SOL    HW1 1106   0.966   1.316   4.364 -0.2362  1.1031  0.1263
  369SOL    HW2 1107   0.995   1.329   4.216 -1.4078  1.5272 -0.0778
  370SOL     OW 1108   0.571   5.155   4.882 -0.2139 -1.3424 -0.5509
  370SOL    HW1 1109   0.565   5.250   4.880  1.9667 -1.0685  1.6327
  370SOL    HW2 1110   0.631   5.133   4.811  0.8344 -0.8667  0.1650
  371SOL     OW 1111   5.208   1.187   1.736 -0.0700  0.5477  0.6316
  371SOL    HW1 1112   5.175   1.139   1.660  1.0646 -0.6904  0.8750
  371SOL    HW2 1113   5.141   1.253   1.754 -1.3298 -0.4545 -0.1949
  372SOL     OW 1114   3.088   1.240   1.645  0.2591  0.4245 -0.2995
  372SOL    HW1 1115   3.013   1.213   1.592  0.4006  0.7357 -0.6639
  372SOL    HW2 1116   3.072   1.202   1.731 -1.4754  2.3109  0.3086
  373SOL     OW 1117   5.109   3.937   1.666 -0.1148 -0.1084 -0.2464
  373SOL    HW1 1118   5.116   3.863   1.606  0.9675 -0.9105  0.8137
  373SOL    HW2 1119   5.132   4.013   1.614 -0.1839 -0.6501 -1.0876
  374SOL     OW 1120   4.534   0.850   5.547 -0.4079  0.2355  0.4571
  374SOL    HW1 1121   4.489   0.803   5.617  0.1554  2.7021  2.6359
  374SOL    HW2 1122   4.497   0.939   5.550  1.4105  1.0923 -0.6981
  375SOL     OW 1123   0.628   5.164   2.085  0.5797 -0.5574  0.3051
  375SOL    HW1 1124   0.580   5.126   2.159  0.5321 -1.4421 -0.1688
  375SOL    HW2 1125   0.706   5.204   2.125 -0.7676  1.3708  1.1525
  376SOL     OW 1126   0.170   1.296   4.877 -0.1938 -0.1618 -0.4645
  376SOL    HW1 1127   0.134   1.316   4.791 -0.4206  1.4650 -0.0200
  376SOL    HW2 1128   0.116   1.345   4.939  0.1213 -1.0965  0.5964
  377SOL     OW 1129   2.487   1.437   1.179  0.0294 -0.5409 -0.6630
  377SOL    HW1 1130   2.407   1.490   1.182  0.1291 -0.3845 -0.7959
  377SOL    HW2 1131   2.552   1.493   1.137 -0.1978 -1.2093 -1.9311
  378SOL     OW 1132   5.315   0.945   0.757 -0.0584  0.5611 -0.4923
  378SOL    HW1 1133   5.329   0.996   0.677  1.0029 -0.0558 -0.7165
  378SOL    HW2 1134   5.227   0.908   0.746 -0.8698  2.3180 -0.3067
  379SOL     OW 1135   3.844   5.708   3.451 -0.4328  0.6944  0.0983
  379SOL    HW1 1136   3.911   5.765   3.488 -0.4438  0.3007  0.7316
  379SOL    HW2 1137   3.893   5.641   3.404 -0.4007  0.7654  0.0302
  380SOL     OW 1138   5.102   1.027   1.538  0.4437  0.2131  0.3935
  380SOL    HW1 1139   5.027   0.967   1.544  0.2096  0.2700 -1.3460
  380SOL    HW2 1140   5.154   0.993   1.464  3.2028 -0.9346  2.6784
  381SOL     OW 1141   5.879   1.100   1.928  0.0540 -0.1171  0.1584
  381SOL    HW1 1142   5.935   1.060   1.995  0.7895 -0.1139 -0.4487
  381SOL    HW2 1143   5.848   1.026   1.876  2.8453  0.1366 -2.0832
  382SOL     OW 1144   3.956   1.323   1.720  0.0116  0.2542 -0.3029
  382SOL    HW1 1145   4.051   1.325   1.708  0.2487 -2.3782  0.4924
  382SOL    HW2 1146   3.944   1.274   1.801 -2.0457 -0.0177 -0.7315
  383SOL     OW 1147   5.453   1.220   2.494  0.1416 -0.1408  1.1997
  383SOL    HW1 1148   5.482   1.292   2.550 -0.1112 -0.3060  1.5497
  383SOL    HW2 1149   5.521   1.152   2.505  1.0793  0.5383 -0.1604
  384SOL     OW 1150   0.691   5.174   2.849  0.1971 -0.4317 -0.0524
  384SOL    HW1 1151   0.645   5.093   2.828  1.0638 -0.7194 -0.9772
  384SOL    HW2 1152   0.784   5.151   2.838  0.4839  0.4977  0.3758
  385SOL     OW 1153   1.277   2.844   1.040  0.4785 -0.2702  0.4138
  385SOL    HW1 1154   1.321   2.909   0.985  0.6128 -1.7159 -1.2734
  385SOL    HW2 1155   1.189   2.837   1.003 -0.1374  0.2260  1.7241
  386SOL     OW 1156   2.735   4.421   3.440  0.2880 -0.2040  0.0538
  386SOL    HW1 1157   2.698   4.342   3.399  1.8684  0.6905 -3.4415
  386SOL    HW2 1158   2.805   4.388   3.496  1.2615 -1.3257 -1.7381
  387SOL     OW 1159   3.283   2.216   4.030 -0.0575  0.3030 -0.0906
  387SOL    HW1 1160   3.359   2.218   3.972  0.6071 -0.3143  0.7469
  387SOL    HW2 1161   3.299   2.286   4.093  0.4921 -0.6954  0.9037
  388SOL     OW 1162   5.824   1.849   5.736 -0.1883  0.4510 -0.1478
  388SOL    HW1 1163   5.732   1.832   5.755  0.2828 -1.8223  0.4211
  388SOL    HW2 1164   5.824   1.884   5.647 -1.5202 -1.0397 -0.7794
  389SOL     OW 1165   1.745   1.093   3.686  0.1282 -0.8470 -0.1455
  389SOL    HW1 1166   1.745   1.039   3.607 -0.2797 -2.7987  1.1237
  389SOL    HW2 1167   1.653   1.100   3.709 -0.0326  2.0561 -1.2892
  390SOL     OW 1168   0.023   2.000   3.932 -0.3631 -0.6287  0.2408
  390SOL    HW1 1169   0.067   1.942   3.994 -0.2290  1.0393  1.7781
  390SOL    HW2 1170   0.066   1.983   3.848  2.3862  0.0131  1.4154
  391SOL     OW 1171   2.600   5.629   4.941  0.1878 -0.3536  0.5325
  391SOL    HW1 1172   2.633   5.711   4.978 -0.3760  0.1905 -0.1302
  391SOL    HW2 1173   2.505   5.640   4.940  0.1917 -0.1892 -1.3675
  392SOL     OW 1174   0.504   4.287   1.723  0.1977 -0.2314  0.2696
  392SOL    HW1 1175   0.484   4.367   1.674  0.0295 -0.6931 -0.4235
  392SOL    HW2 1176   0.595   4.297   1.750 -0.1986  0.7840  1.3257
  393SOL     OW 1177   5.002   1.436   4.342  0.0533 -0.1651  0.3081
  393SOL    HW1 1178   5.044   1.512   4.302 -4.0979  2.4013  0.1904
  393SOL    HW2 1179   5.009   1.451   4.436 -0.5179  0.2844  0.2881
  394SOL     OW 1180   3.682   2.686   3.883  0.2583  0.1764  0.6005
  394SOL    HW1 1181   3.734   2.608   3.906 -0.3976 -0.2074  0.8111
  394SOL    HW2 1182   3.691   2.744   3.958  0.6506  0.2551  0.4948
  395SOL     OW 1183   0.712   2.095   0.881  0.2763  0.3405 -0.2108
  395SOL    HW1 1184   0.707   2.064   0.972 -2.0189 -1.5807 -0.9095
  395SOL    HW2 1185   0.637   2.153   0.871  0.8165  0.9645 -0.7725
  396SOL     OW 1186   5.982   3.105   3.114 -0.2615 -0.0504 -0.1976
  396SOL    HW1 1187   5.888   3.086   3.113 -0.2417 -0.1657 -1.5705
  396SOL    HW2 1188   5.996   3.161   3.038  0.8215 -0.2340 -0.1525
  397SOL     OW 1189   0.391   1.942   3.873  0.1058  0.4839 -0.2730
  397SOL    HW1 1190   0.423   1.904   3.791 -1.9004  0.9867 -1.3722
  397SOL    HW2 1191   0.355   1.868   3.921 -2.1890  0.6048 -1.6281
  398SOL     OW 1192   5.090   3.371   1.019  0.0094  0.2459 -0.0111
  398SOL    HW1 1193   5.092   3.322   0.937 -0.1998 -0.0144  0.1345
  398SOL    HW2 1194   5.008   3.345   1.060 -1.0116  2.0941 -0.7504
  399SOL     OW 1195   0.729   5.771   1.282 -0.2471 -0.6349 -0.0641
  399SOL    HW1 1196   0.652   5.798   1.232 -0.3815 -2.3218 -0.8478
  399SOL    HW2 1197   0.800   5.824   1.247 -0.1059 -2.4826 -2.9687
  400SOL     OW 1198   0.301   1.681   1.038  0.0304  0.3719  0.0536
  400SOL    HW1 1199   0.371   1.678   0.973 -0.5970  0.9561 -0.6750
  400SOL    HW2 1200   0.221   1.693   0.986 -0.5609  0.1426  0.8921
  401SOL     OW 1201   0.101   1.595   3.119 -0.8409  0.3286 -0.3142
  401SOL    HW1 1202   0.115   1.563   3.030 -0.8812  1.1794 -0.6392
  401SOL    HW2 1203   0.070   1.519   3.168  1.1696 -0.6726 -0.5074
  402SOL     OW 1204   2.961   1.058   3.183 -0.2372  0.2698  0.1509
  402SOL    HW1 1205   2.940   1.130   3.123 -0.3774  0.9750  1.0355
  402SOL    HW2 1206   2.896   0.990   3.162  0.6648 -0.1379 -1.5537
  403SOL     OW 1207   1.307   2.544   5.441  0.5279  0.1779  0.5701
  403SOL    HW1 1208   1.289   2.593   5.360 -1.8684  0.4487  1.1885
  403SOL    HW2 1209   1.270   2.457   5.425 -0.3886  0.3746  1.4997
  404SOL     OW 1210   5.535   2.952   0.455 -0.6005 -0.2829 -0.0883
  404SOL    HW1 1211   5.467   2.898   0.416 -0.4235 -0.6683  0.1219
  404SOL    HW2 1212   5.489   3.027   0.492 -1.0070 -0.9001  0.6950
  405SOL     OW 1213   2.471   2.416   2.204 -0.6055  0.5471 -0.5535
  405SOL    HW1 1214   2.547   2.395   2.257  0.4104  2.4826 -1.1734
  405SOL    HW2 1215   2.429   2.331   2.188  2.6089 -0.9325 -1.9867
  406SOL     OW 1216   2.540   5.377   2.127 -0.7593  0.1669  0.1222
  406SOL    HW1 1217   2.509   5.311   2.190 -1.5979  1.0366  0.6630
  406SOL    HW2 1218   2.463   5.394   2.072 -0.7212  1.0683  0.3344
  407SOL     OW 1219   4.135   3.329   1.249 -0.6146  0.8043 -0.2755
  407SOL    HW1 1220   4.209   3.275   1.222  0.0652  0.6606  1.6930
  407SOL    HW2 1221   4.074   3.325   1.176  0.0548 -1.4418 -0.7898
  408SOL     OW 1222   5.227   1.217   2.111 -0.2486  0.0538 -0.2942
  408SOL    HW1 1223   5.203   1.176   2.194 -1.1911  2.5575  0.7665
  408SOL    HW2 1224   5.313   1.256   2.128 -0.0131 -0.2239 -0.8200
  409SOL     OW 1225   5.629   4.413   3.160 -0.0523 -0.4108 -0.8780
  409SOL    HW1 1226   5.572   4.337   3.151 -1.5263  0.7561 -1.6931
  409SOL    HW2 1227   5.619   4.461   3.078 -1.5151  2.2239  0.6960
  410SOL     OW 1228   1.010   1.179   2.780  0.0999  0.2833  0.0661
  410SOL    HW1 1229   0.923   1.209   2.753 -0.2620 -1.1282 -0.4105
  410SOL    HW2 1230   1.014   1.087   2.752  1.3438  0.0127  1.0280
  411SOL     OW 1231   4.620   5.209   4.038 -0.2422  0.3918  0.0677
  411SOL    HW1 1232   4.701   5.165   4.064  0.0221  0.9438  0.1934
  411SOL    HW2 1233   4.648   5.280   3.980 -0.5747  0.9752  0.6018
  412SOL     OW 1234   2.524   1.791   2.853  0.5474  0.1977  0.2217
  412SOL    HW1 1235   2.541   1.761   2.942 -0.4650  0.3462  0.4846
  412SOL    HW2 1236   2.477   1.719   2.811 -0.3876  0.7241  0.3246
  413SOL     OW 1237   5.850   0.725   5.099 -0.1206 -0.3300  1.0163
  413SOL    HW1 1238   5.813   0.737   5.186 -0.1327 -1.1848  1.1420
  413SOL    HW2 1239   5.827   0.635   5.076  1.2575 -0.6522  0.8097
  414SOL     OW 1240   2.106   0.240   3.519  0.2371  0.3071 -0.0401
  414SOL    HW1 1241   2.114   0.159   3.469  1.1442  1.9964 -2.8380
  414SOL    HW2 1242   2.169   0.230   3.591 -0.4328 -1.8184  0.3366
  415SOL     OW 1243   0.188   4.556   4.539  0.0292 -0.8999  0.1180
  415SOL    HW1 1244   0.102   4.523   4.513  0.2520 -1.2369 -0.2106
  415SOL    HW2 1245   0.237   4.477   4.563  0.0850 -0.6634  0.8002
  416SOL     OW 1246   1.692   3.542   2.157 -0.0051  0.0385  0.2379
  416SOL    HW1 1247   1.669   3.591   2.078 -1.2252  0.3087  0.7224
  416SOL    HW2 1248   1.745   3.604   2.208  1.7015 -0.5040 -0.7925
  417SOL     OW 1249   5.885   1.123   3.469 -0.5696  0.5938 -0.8126
  417SOL    HW1 1250   5.955   1.058   3.471  1.4178  2.6138  1.0787
  417SOL    HW2 1251   5.829   1.100   3.543 -0.9104  0.0155 -1.2428
  418SOL     OW 1252   5.679   2.005   2.709  0.2249  0.0401  0.1997
  418SOL    HW1 1253   5.637   2.018   2.794 -1.2767 -2.5741 -0.0210
  418SOL    HW2 1254   5.769   1.981   2.730 -0.6501 -2.6889  1.3097
  419SOL     OW 1255   1.051   1.569   1.647 -0.1445 -0.0364  0.4505
  419SOL    HW1 1256   1.100   1.651   1.657  1.0492 -0.6457 -0.1765
  419SOL    HW2 1257   1.032   1.563   1.554 -1.2191  0.0611  0.6518
  420SOL     OW 1258   1.924   2.499   2.538 -0.3931  0.0402 -0.0472
  420SOL    HW1 1259   1.873   2.574   2.568  0.1632  0.4520 -0.1282
  420SOL    HW2 1260   1.859   2.429   2.529 -1.0457  0.6997 -0.6730
  421SOL     OW 1261   2.819   1.202   2.812  0.5994  0.1109 -0.3308
  421SOL    HW1 1262   2.857   1.162   2.733  0.4582 -2.1446  0.6438
  421SOL    HW2 1263   2.893   1.246   2.854  1.0535 -0.1089 -0.8764
  422SOL     OW 1264   3.044   1.103   5.771  0.2143 -0.2162 -0.0131
  422SOL    HW1 1265   3.104   1.161   5.818 -1.2793  0.9260  0.5865
  422SOL    HW2 1266   2.959   1.148   5.776 -1.1438 -2.6928  0.9178
  423SOL     OW 1267   1.419   0.703   1.475 -0.3833  0.5527  0.1752
  423SOL    HW1 1268   1.340   0.756   1.488  0.9342  2.8278 -0.4328
  423SOL    HW2 1269   1.457   0.738   1.394  0.0841 -2.0736 -0.8374
  424SOL     OW 1270   4.784   3.290   5.724  0.4018 -0.7754  0.4673
  424SOL    HW1 1271   4.767   3.229   5.652  0.3137  0.2873 -0.4472
  424SOL    HW2 1272   4.847   3.353   5.688 -0.1570  0.1686  1.0888
  425SOL     OW 1273   1.694   2.702   3.745 -0.6102  0.0333 -0.1866
  425SOL    HW1 1274   1.620   2.643   3.736  0.2575 -0.9662 -0.9962
  425SOL    HW2 1275   1.683   2.766   3.675 -1.8301  1.1920  1.0099
  426SOL     OW 1276   1.068   1.110   4.051 -0.2547 -0.1929  0.0867
  426SOL    HW1 1277   1.136   1.044   4.062  0.7303  0.8936  0.7193
  426SOL    HW2 1278   1.068   1.129   3.957 -0.4650 -0.9882 -0.0834
  427SOL     OW 1279   0.038   5.217   4.987  0.0615  0.0944  0.5676
  427SOL    HW1 1280   0.088   5.136   4.985 -0.6327 -0.3343  0.1129
  427SOL    HW2 1281   0.103   5.286   4.969  0.7714 -0.2848  1.5873
  428SOL     OW 1282   0.998   0.635   0.671  0.0940  0.3256 -0.0734
  428SOL    HW1 1283   0.936   0.673   0.733 -1.5599 -0.0290 -1.4431
  428SOL    HW2 1284   1.040   0.563   0.719  0.4201  1.3968  1.2847
  429SOL     OW 1285   2.499   1.270   0.860  0.0849  0.0524  0.2640
  429SOL    HW1 1286   2.487   1.284   0.954 -2.0903 -0.5200  0.1390
  429SOL    HW2 1287   2.512   1.358   0.824 -1.8173  0.6161  0.8205
  430SOL     OW 1288   4.723   0.399   4.754  0.3036 -0.2284 -0.2981
  430SOL    HW1 1289   4.801   0.355   4.787  0.0309  0.5243  1.4921
  430SOL    HW2 1290   4.731   0.488   4.786 -0.5464  0.2738 -1.4257
  431SOL     OW 1291   0.100   4.478   4.162 -0.8684 -0.2681  0.1219
  431SOL    HW1 1292   0.064   4.496   4.249 -0.7064  1.4715 -0.1368
  431SOL    HW2 1293   0.025   4.482   4.103 -1.0937 -2.1334  0.2278
  432SOL     OW 1294   1.843   4.042   5.097  0.2594 -0.3793 -1.0680
  432SOL    HW1 1295   1.802   4.097   5.164 -0.2680 -1.5666 -0.3796
  432SOL    HW2 1296   1.904   4.101   5.052 -0.6496  0.8899 -0.7091
  433SOL     OW 1297   4.685   1.118   4.629  0.2136 -0.2607 -0.2705
  433SOL    HW1 1298   4.659   1.088   4.542 -0.5045 -2.8135  0.7445
  433SOL    HW2 1299   4.766   1.168   4.614 -0.5042  0.3405 -2.4842
  434SOL     OW 1300   0.945   0.886   4.977  0.0958 -0.3050  0.2767
  434SOL    HW1 1301   0.871   0.937   5.010  1.1898  1.4489  0.1526
  434SOL    HW2 1302   0.927   0.875   4.884 -1.0781 -1.8658  0.6483
  435SOL     OW 1303   3.076   2.097   3.209 -0.7630 -0.4892  0.3918
  435SOL    HW1 1304   3.016   2.062   3.144 -0.1226 -2.5516  0.8191
  435SOL    HW2 1305   3.151   2.129   3.159 -0.4722 -1.6466  0.0616
  436SOL     OW 1306   1.761   1.077   5.182  0.7345 -0.4339  0.3498
  436SOL    HW1 1307   1.713   1.024   5.246 -3.0346  1.6490 -0.4991
  436SOL    HW2 1308   1.740   1.038   5.097 -0.5181  1.1726 -0.1281
  437SOL     OW 1309   5.771   5.717   2.202  0.1942 -0.5723  0.9527
  437SOL    HW1 1310   5.803   5.806   2.213 -0.0227 -0.5418  1.3616
  437SOL    HW2 1311   5.806   5.670   2.278 -0.1770 -0.6945  1.0508
  438SOL     OW 1312   0.133   2.602   0.710 -0.1391 -0.1845  0.0917
  438SOL    HW1 1313   0.212   2.634   0.753 -0.5465  1.1157 -0.0765
  438SOL    HW2 1314   0.121   2.661   0.636 -0.2468 -1.5061 -0.9803
  439SOL     OW 1315   1.390   4.296   3.983  0.2699 -0.6553  0.3047
  439SOL    HW1 1316   1.440   4.324   3.906 -2.1974 -0.2144 -1.2545
  439SOL    HW2 1317   1.316   4.246   3.947 -0.1781 -1.7160  2.5103
  440SOL     OW 1318   2.805   0.591   4.830 -0.0760  0.1424 -0.0897
  440SOL    HW1 1319   2.775   0.521   4.772  1.0192 -0.4765  0.0524
  440SOL    HW2 1320   2.849   0.652   4.771  0.7639 -0.3327  0.0159
  441SOL     OW 1321   0.793   5.610   3.476 -0.1694  0.0220 -0.3739
  441SOL    HW1 1322   0.701   5.586   3.469 -0.0929 -0.3252 -0.2203
  441SOL    HW2 1323   0.806   5.629   3.569 -0.3146  1.0312 -0.5450
  442SOL     OW 1324   0.779   1.269   2.682 -0.3609  0.6672 -0.0483
  442SOL    HW1 1325   0.684   1.255   2.689 -0.4163  0.2911 -1.3088
  442SOL    HW2 1326   0.792   1.300   2.593  0.7930 -0.1172 -0.1743
  443SOL     OW 1327   0.401   4.269   2.688 -0.2327 -0.3674 -0.3615
  443SOL    HW1 1328   0.441   4.346   2.648 -0.5848 -0.3779 -0.7431
  443SOL    HW2 1329   0.474   4.210   2.706  0.3663  0.9359  2.0056
  444SOL     OW 1330   5.060   0.191   4.543 -0.6287  0.3235 -0.2020
  444SOL    HW1 1331   5.073   0.099   4.523 -0.2521  0.1323  0.8859
  444SOL    HW2 1332   4.988   0.218   4.486  0.7177 -0.0532 -2.1550
  445SOL     OW 1333   1.187   1.774   5.055  0.3113 -0.1486 -0.4697
  445SOL    HW1 1334   1.269   1.802   5.096  0.6600 -0.3082 -1.0489
  445SOL    HW2 1335   1.123   1.778   5.126 -0.0042  3.4913 -0.7583
  446SOL     OW 1336   2.376   2.004   0.577  0.0286 -0.3659  0.1166
  446SOL    HW1 1337   2.346   1.929   0.628  0.9546 -2.2628 -1.9965
  446SOL    HW2 1338   2.311   2.013   0.507  0.2762  0.4251 -0.0252
  447SOL     OW 1339   1.309   0.467   3.966 -0.2052 -0.0747  0.0172
  447SOL    HW1 1340   1.405   0.464   3.969 -0.0366  0.0632 -2.7579
  447SOL    HW2 1341   1.284   0.509   4.048  2.0909 -0.3166  0.9194
  448SOL     OW 1342   4.207   3.856   3.802 -0.3418 -0.2596 -0.3003
  448SOL    HW1 1343   4.214   3.893   3.714 -1.7174  0.6252 -0.0700
  448SOL    HW2 1344   4.292   3.816   3.818 -0.4350 -1.5178 -2.5147
  449SOL     OW 1345   1.349   4.516   1.792 -0.1179 -0.2727  0.1084
  449SOL    HW1 1346   1.431   4.527   1.840 -0.9201  3.9970  0.9204
  449SOL    HW2 1347   1.284   4.500   1.861 -0.3096 -1.3279 -0.3078
  450SOL     OW 1348   0.355   0.108   5.745 -0.2749  0.0254 -0.0171
  450SOL    HW1 1349   0.265   0.078   5.762  0.0916 -1.6684 -0.8890
  450SOL    HW2 1350   0.387   0.050   5.676  0.1335  3.1904 -2.7377
  451SOL     OW 1351   0.236   0.630   0.596  0.0649  0.8049 -0.1358
  451SOL    HW1 1352   0.321   0.596   0.568 -0.5513 -1.1222  0.1894
  451SOL    HW2 1353   0.240   0.724   0.575  2.2293  0.7682 -0.1744
  452SOL     OW 1354   0.272   1.528   4.460  0.4137  0.8529  0.2511
  452SOL    HW1 1355   0.354   1.505   4.504 -0.5222  0.2821  1.7346
  452SOL    HW2 1356   0.242   1.607   4.505 -1.2015 -0.4514  1.5577
  453SOL     OW 1357   0.825   1.241   4.425 -0.4480  0.1409 -0.3124
  453SOL    HW1 1358   0.838   1.156   4.382 -0.8106 -0.0634 -0.0268
  453SOL    HW2 1359   0.734   1.264   4.405 -1.3870 -1.0266  2.1687
  454SOL     OW 1360   0.910   0.187   2.525  0.4646 -0.3371  0.8292
  454SOL    HW1 1361   0.933   0.278   2.542 -0.2294 -0.0934  0.5160
  454SOL    HW2 1362   0.885   0.151   2.610 -2.0050  0.5846  0.5954
  455SOL     OW 1363   5.730   0.454   4.450 -0.0238  0.2629  0.1006
  455SOL    HW1 1364   5.747   0.376   4.397  0.3392  0.2893  0.1793
  455SOL    HW2 1365   5.799   0.454   4.517  0.0812  0.7401 -0.0015
  456SOL     OW 1366   1.320   1.474   3.764  0.0691  0.7950  0.0704
  456SOL    HW1 1367   1.327   1.507   3.675  0.2232 -1.6534 -0.9127
  456SOL    HW2 1368   1.390   1.519   3.812  0.9488  1.0765 -1.4083
  457SOL     OW 1369   1.615   0.331   0.612  0.5285 -0.1981  0.2287
  457SOL    HW1 1370   1.654   0.340   0.699  2.1291  0.6163 -0.5376
  457SOL    HW2 1371   1.534   0.382   0.617  0.0542 -1.0274  1.5325
  458SOL     OW 1372   3.132   5.882   4.081 -0.2298  0.3703  0.4228
  458SOL    HW1 1373   3.147   5.976   4.069 -2.1356  0.4887 -1.6772
  458SOL    HW2 1374   3.083   5.876   4.163  1.7302  0.9332  1.7070
  459SOL     OW 1375   0.060   2.212   4.889  0.0911  0.0840  1.0429
  459SOL    HW1 1376   0.106   2.228   4.806  0.1233 -0.4971  0.9411
  459SOL    HW2 1377  -0.003   2.284   4.897 -0.1335 -0.0302  0.3521
  460SOL     OW 1378   1.618   2.989   1.229  0.4158  0.6127  0.0747
  460SOL    HW1 1379   1.646   3.075   1.260 -2.0408  1.5230  0.0444
  460SOL    HW2 1380   1.526   3.002   1.204  0.3025 -1.7667 -0.9954
  461SOL     OW 1381   5.729   1.021   3.674 -0.6786  0.0875  0.5152
  461SOL    HW1 1382   5.751   1.020   3.767  1.5962  0.4808  0.0303
  461SOL    HW2 1383   5.685   0.937   3.658  1.5392 -1.3327  1.3908
  462SOL     OW 1384   0.560   5.701   2.598  0.4892  0.3843 -0.1521
  462SOL    HW1 1385   0.645   5.744   2.603  0.8395 -0.1419 -1.2250
  462SOL    HW2 1386   0.557   5.663   2.510  0.5438 -2.4698  0.9606
  463SOL     OW 1387   5.217   1.369   4.102  0.3452  0.5343 -0.4018
  463SOL    HW1 1388   5.162   1.393   4.028  1.2148  0.6367 -1.0260
  463SOL    HW2 1389   5.206   1.440   4.165 -0.3418  0.4795 -0.4515
  464SOL     OW 1390   0.932   5.138   2.599  0.0907 -0.5324 -0.4399
  464SOL    HW1 1391   0.858   5.162   2.543  0.1153  0.2174 -0.1613
  464SOL    HW2 1392   0.983   5.219   2.607 -0.4752 -0.3229  1.5201
  465SOL     OW 1393   5.406   5.798   3.184 -0.4031  0.2868  0.0075
  465SOL    HW1 1394   5.368   5.776   3.269 -0.2228  0.4046  0.1190
  465SOL    HW2 1395   5.331   5.823   3.130 -0.5548 -0.1232  0.0275
  466SOL     OW 1396   1.767   4.020   0.840 -0.0727  0.0103  0.2879
  466SOL    HW1 1397   1.679   4.019   0.802 -0.1917 -1.0635  0.5441
  466SOL    HW2 1398   1.824   4.048   0.768 -0.7019  1.5678  0.3561
  467SOL     OW 1399   5.437   4.502   3.901 -0.3946 -0.2823 -0.6070
  467SOL    HW1 1400   5.460   4.476   3.990  0.0475 -0.2227 -0.6997
  467SOL    HW2 1401   5.511   4.472   3.847 -0.4140  0.1434 -0.8782
  468SOL     OW 1402   1.148   1.317   1.208  0.1702  0.0103 -0.1752
  468SOL    HW1 1403   1.116   1.305   1.298  0.8231 -0.0885  0.0509
  468SOL    HW2 1404   1.081   1.371   1.166  0.0444  0.3879  0.4909
  469SOL     OW 1405   3.905   4.636   1.704 -0.0332  0.6584 -0.8827
  469SOL    HW1 1406   3.950   4.562   1.665  0.1246 -0.1928  0.8485
  469SOL    HW2 1407   3.949   4.713   1.667  0.6115 -0.1088 -1.7527
  470SOL     OW 1408   0.673   2.212   3.441  0.2046  0.1433  0.1520
  470SOL    HW1 1409   0.692   2.119   3.438 -2.5285 -0.5799  1.8712
  470SOL    HW2 1410   0.599   2.223   3.381 -0.5489  0.8702  1.1867
  471SOL     OW 1411   3.117   2.398   5.127  0.4292  0.6994  0.4125
  471SOL    HW1 1412   3.079   2.372   5.043 -0.5534  0.9227  0.7716
  471SOL    HW2 1413   3.091   2.329   5.188 -0.2659  1.3426  0.8741
  472SOL     OW 1414   4.863   0.649   1.823  0.5839 -0.1339  0.2064
  472SOL    HW1 1415   4.902   0.576   1.872  1.3233  0.1234  0.0190
  472SOL    HW2 1416   4.893   0.728   1.869 -1.2528  0.0565  1.1809
  473SOL     OW 1417   1.940   0.851   1.288  0.4752 -0.3761  0.5559
  473SOL    HW1 1418   1.957   0.942   1.265  0.7076  0.2956  3.0605
  473SOL    HW2 1419   1.869   0.824   1.230 -0.1164  1.6365  0.2820
  474SOL     OW 1420   3.192   5.452   5.420 -0.0301 -0.4271 -0.1561
  474SOL    HW1 1421   3.248   5.376   5.433  0.8112  0.3649  1.1589
  474SOL    HW2 1422   3.126   5.424   5.358  0.5800 -2.0541 -0.1023
  475SOL     OW 1423   0.999   0.029   4.718  0.1356  0.3810 -0.2352
  475SOL    HW1 1424   1.022   0.037   4.626 -0.5823  0.7863 -0.3886
  475SOL    HW2 1425   0.904   0.016   4.718  0.1370  0.3389  0.4442
  476SOL     OW 1426   0.593   5.789   3.892  0.2952  0.3817 -0.2643
  476SOL    HW1 1427   0.583   5.819   3.982  0.7781  1.5704 -0.5898
  476SOL    HW2 1428   0.516   5.734   3.877 -0.4051  1.1113  0.4990
  477SOL     OW 1429   1.546   3.915   2.333 -0.5512 -0.0171 -0.5793
  477SOL    HW1 1430   1.460   3.912   2.291  0.4081  0.5594 -2.6940
  477SOL    HW2 1431   1.603   3.961   2.271  1.0895  0.4772  1.1706
  478SOL     OW 1432   0.883   1.102   3.356 -0.1665  0.0038 -0.0125
  478SOL    HW1 1433   0.911   1.115   3.266  1.3400  0.7034  0.5348
  478SOL    HW2 1434   0.798   1.147   3.361 -0.8254 -1.0164 -1.3474
  479SOL     OW 1435   0.903   0.303   4.257 -0.0042 -0.0132 -0.3125
  479SOL    HW1 1436   0.918   0.376   4.197  1.3997 -0.2874 -0.3341
  479SOL    HW2 1437   0.984   0.297   4.308 -0.4516 -0.9773  0.3254
  480SOL     OW 1438   4.232   0.615   2.385  0.1981  0.4204  0.8439
  480SOL    HW1 1439   4.271   0.543   2.336  0.8482  0.7887  0.8049
  480SOL    HW2 1440   4.142   0.621   2.353  1.1305  1.9262 -1.7943
  481SOL     OW 1441   0.071   2.358   0.832 -0.0425  0.0181  0.2306
  481SOL    HW1 1442   0.057   2.285   0.772 -2.9385  0.1887  0.5592
  481SOL    HW2 1443   0.092   2.432   0.776  2.9086 -0.9491 -0.1098
  482SOL     OW 1444   4.339   2.052   0.833  0.6235  0.7770 -0.5122
  482SOL    HW1 1445   4.367   1.969   0.871  1.3236  0.4063 -1.7742
  482SOL    HW2 1446   4.330   2.034   0.739 -0.6699  1.7472 -0.6130
  483SOL     OW 1447   3.879   5.917   5.314  0.5769 -0.8483 -0.3289
  483SOL    HW1 1448   3.850   5.826   5.324  0.9369 -0.7978  1.6625
  483SOL    HW2 1449   3.890   5.948   5.404 -0.3883  1.4603 -0.9377
  484SOL     OW 1450   1.468   2.302   3.526  0.8362 -0.2915 -1.0505
  484SOL    HW1 1451   1.462   2.268   3.437  0.0916 -0.6319 -0.8746
  484SOL    HW2 1452   1.378   2.319   3.552  1.1366  1.0180 -0.8179
  485SOL     OW 1453   6.017   5.939   4.709 -0.4932 -0.5017 -0.4388
  485SOL    HW1 1454   5.948   5.990   4.667 -0.3139 -0.0648 -0.2109
  485SOL    HW2 1455   5.994   5.938   4.801  0.0999  0.1344 -0.2740
  486SOL     OW 1456   1.784   2.147   5.601  0.0128  0.1439  0.1718
  486SOL    HW1 1457   1.839   2.223   5.620  0.2780 -0.2778  1.1315
  486SOL    HW2 1458   1.710   2.183   5.551  1.7728  0.5100 -2.3297
  487SOL     OW 1459   2.433   1.784   5.032 -0.2442 -0.1145  0.0366
  487SOL    HW1 1460   2.418   1.724   5.104  0.2293  0.4771  0.6409
  487SOL    HW2 1461   2.406   1.735   4.954  0.1471 -1.1056  0.5088
  488SOL     OW 1462   1.007   0.238   3.930 -0.1667  0.3601  0.0015
  488SOL    HW1 1463   0.959   0.297   3.988 -0.5170  1.5239 -1.3967
  488SOL    HW2 1464   1.059   0.297   3.875  1.2156 -0.7728  0.0413
  489SOL     OW 1465   5.519   4.291   4.698 -0.0086 -0.3451  0.1454
  489SOL    HW1 1466   5.436   4.286   4.649 -1.1982  0.4269  1.9638
  489SOL    HW2 1467   5.551   4.380   4.682 -0.3951 -0.0945  0.7320
  490SOL     OW 1468   5.651   0.401   0.368 -0.0888  0.5267 -0.4028
  490SOL    HW1 1469   5.579   0.463   0.351 -0.7184  0.0075  0.3011
  490SOL    HW2 1470   5.719   0.454   0.410  0.3111  1.2090 -1.8559
  491SOL     OW 1471   4.232   0.865   1.056  0.6025 -0.0584 -0.4504
  491SOL    HW1 1472   4.197   0.939   1.107  0.7237 -1.0403  1.1310
  491SOL    HW2 1473   4.165   0.797   1.064  0.8410 -0.3989 -1.2411
  492SOL     OW 1474   4.242   4.297   4.426 -0.2248  0.1264  0.1146
  492SOL    HW1 1475   4.232   4.246   4.506 -2.5653 -1.9623 -1.3473
  492SOL    HW2 1476   4.214   4.386   4.450 -1.7657 -0.6703  1.4402
  493SOL     OW 1477   5.347   1.163   5.139 -0.0446 -0.2034  0.1735
  493SOL    HW1 1478   5.354   1.168   5.234  0.5029  0.5873  0.0982
  493SOL    HW2 1479   5.285   1.091   5.123  0.0498 -0.5013  1.1116
  494SOL     OW 1480   1.077   5.718   3.639  0.1189  0.0631  0.8100
  494SOL    HW1 1481   0.982   5.719   3.634  0.1940 -0.1505 -1.1639
  494SOL    HW2 1482   1.102   5.811   3.640 -0.0642  0.1153  0.3946
  495SOL     OW 1483   2.320   2.323   4.770  0.0927 -0.1198  0.7666
  495SOL    HW1 1484   2.249   2.289   4.715  1.1716 -0.9506 -0.1545
  495SOL    HW2 1485   2.319   2.417   4.754 -1.2647 -0.0091  1.3410
  496SOL     OW 1486   2.192   2.621   4.079  0.0759 -0.0248  0.8043
  496SOL    HW1 1487   2.203   2.622   4.174 -1.0380  0.4725  0.9436
  496SOL    HW2 1488   2.236   2.540   4.051  1.1186  0.2226  1.6334
  497SOL     OW 1489   3.663   2.168   5.777 -0.4886  0.6371  0.1956
  497SOL    HW1 1490   3.661   2.157   5.682  3.0875 -1.3023  0.1753
  497SOL    HW2 1491   3.668   2.263   5.790  0.1583  0.8880 -1.6165
  498SOL     OW 1492   4.562   1.145   3.374  0.6871  0.2881 -0.3738
  498SOL    HW1 1493   4.641   1.102   3.407 -0.0094 -0.3337  0.5528
  498SOL    HW2 1494   4.518   1.078   3.322  0.6263  0.5321 -0.6360
  499SOL     OW 1495   4.178   0.466   5.991  0.3981  0.2118 -0.1142
  499SOL    HW1 1496   4.264   0.424   5.983  0.5914  0.6529 -0.3861
  499SOL    HW2 1497   4.121   0.414   5.935  0.2068 -0.8104  1.0020
  500SOL     OW 1498   2.429   1.853   5.943 -0.3060  0.1704  0.1353
  500SOL    HW1 1499   2.451   1.934   5.989 -0.7413  0.2081  0.2864
  500SOL    HW2 1500   2.404   1.881   5.855  2.2065 -0.0521 -0.7228
  501SOL     OW 1501   4.876   1.837   3.339 -0.5091 -0.2136  0.3719
  501SOL    HW1 1502   4.884   1.766   3.274  1.2565  0.5621 -0.3069
  501SOL    HW2 1503   4.964   1.872   3.348 -0.6973 -0.2379  3.1929
  502SOL     OW 1504   4.081   3.558   5.116 -0.0672  0.3781 -0.7291
  502SOL    HW1 1505   4.091   3.599   5.201 -1.3976  0.4967 -0.6041
  502SOL    HW2 1506   4.145   3.601   5.060 -1.1311  2.3766 -0.5062
  503SOL     OW 1507   1.502   4.472   1.081  0.4172  0.3101  0.1073
  503SOL    HW1 1508   1.570   4.492   1.016  1.3006 -0.4019  0.7909
  503SOL    HW2 1509   1.550   4.458   1.163 -0.4946 -0.7792  0.4824
  504SOL     OW 1510   1.505   0.921   3.896 -0.6318 -0.3096  0.1579
  504SOL    HW1 1511   1.452   0.998   3.876 -0.2741  0.1416  0.8996
  504SOL    HW2 1512   1.587   0.957   3.930  0.3204 -0.9742 -1.3109
  505SOL     OW 1513   3.389   5.411   0.881 -0.1190 -0.2024  0.1644
  505SOL    HW1 1514   3.474   5.374   0.857 -0.3339 -0.1251 -0.7270
  505SOL    HW2 1515   3.376   5.484   0.821  0.1572  1.1656  1.7132
  506SOL     OW 1516   2.055   3.684   3.674  0.0034 -0.4195  0.4123
  506SOL    HW1 1517   2.135   3.682   3.727  1.5813  1.9640 -1.5986
  506SOL    HW2 1518   2.068   3.759   3.616 -3.4743 -0.3514 -0.4507
  507SOL     OW 1519   0.481   3.510   4.132 -0.6054  0.1993  0.4452
  507SOL    HW1 1520   0.466   3.492   4.040 -0.2077 -1.1998  0.6318
  507SOL    HW2 1521   0.483   3.605   4.138 -1.0434  0.3078 -0.9171
  508SOL     OW 1522   1.336   1.350   4.740  0.2482 -0.0906 -0.5679
  508SOL    HW1 1523   1.376   1.263   4.735  1.5766  0.5268 -1.0165
  508SOL    HW2 1524   1.260   1.338   4.798  1.6810 -1.0720  1.2162
  509SOL     OW 1525   2.171   1.861   4.741 -0.0296  0.3298 -0.4003
  509SOL    HW1 1526   2.259   1.825   4.729 -0.6857 -1.3319 -0.6190
  509SOL    HW2 1527   2.116   1.808   4.682 -1.7892 -1.4289  2.5429
  510SOL     OW 1528   1.875   1.150   5.653 -0.4389  0.7065  0.0414
  510SOL    HW1 1529   1.795   1.196   5.677 -1.5951 -1.2402  0.1250
  510SOL    HW2 1530   1.879   1.156   5.558 -0.8088  0.6022  0.0193
  511SOL     OW 1531   1.940   2.860   5.701  0.4016  0.3841 -0.8619
  511SOL    HW1 1532   1.976   2.837   5.616 -0.8706  0.6279 -1.4886
  511SOL    HW2 1533   1.846   2.872   5.685 -0.1610 -1.2010  0.8907
  512SOL     OW 1534   3.766   2.759   4.419  0.1695 -0.4222  0.1922
  512SOL    HW1 1535   3.703   2.831   4.429  0.7852  0.4232 -1.5079
  512SOL    HW2 1536   3.782   2.728   4.508 -0.3219  1.3743  0.9528
  513SOL     OW 1537   2.391   4.365   2.520  0.5790  0.0397 -0.4852
  513SOL    HW1 1538   2.324   4.391   2.457  0.5254  2.1796  0.3662
  513SOL    HW2 1539   2.414   4.446   2.566  0.5750 -1.3892  2.2919
  514SOL     OW 1540   1.559   0.444   4.413 -0.8771  0.0362  0.3762
  514SOL    HW1 1541   1.549   0.509   4.482  1.2813  1.5691 -0.6304
  514SOL    HW2 1542   1.615   0.487   4.348  0.1754 -2.6280 -0.6144
  515SOL     OW 1543   1.833   2.298   3.078 -0.1776 -0.0839 -0.7454
  515SOL    HW1 1544   1.791   2.374   3.037  0.9228  0.0450 -1.6630
  515SOL    HW2 1545   1.869   2.333   3.160  1.5632  0.7675 -1.8168
  516SOL     OW 1546   5.412   2.721   5.048  0.1448 -0.1217  0.1581
  516SOL    HW1 1547   5.471   2.703   5.121 -0.8016  1.1057  1.2879
  516SOL    HW2 1548   5.414   2.816   5.039 -1.4169 -0.0730  0.0358
  517SOL     OW 1549   0.325   5.195   4.137 -0.4412 -0.4691 -0.0643
  517SOL    HW1 1550   0.265   5.248   4.189  0.2148 -0.8379  1.1095
  517SOL    HW2 1551   0.271   5.160   4.066 -0.6732  2.6830 -1.6417
  518SOL     OW 1552   4.482   4.238   0.030  0.1517  0.1833 -0.6231
  518SOL    HW1 1553   4.567   4.270   0.061  0.0631 -0.4769  0.3333
  518SOL    HW2 1554   4.449   4.310  -0.025  1.2567  0.5016 -0.9009
  519SOL     OW 1555   1.770   0.841   4.982 -0.4796  0.5677 -0.0949
  519SOL    HW1 1556   1.823   0.763   4.967 -0.3026  0.7560 -0.4511
  519SOL    HW2 1557   1.686   0.808   5.012 -0.1693  0.2638  0.4619
  520SOL     OW 1558   0.351   0.047   5.225 -0.0321  0.0170 -0.0214
  520SOL    HW1 1559   0.327  -0.029   5.172 -0.1852  0.3779 -0.4773
  520SOL    HW2 1560   0.443   0.062   5.204  0.6316 -1.3139  1.6612
  521SOL     OW 1561   2.774   2.483   1.634 -0.2340  0.1623  0.0263
  521SOL    HW1 1562   2.802   2.392   1.640 -1.0957 -0.0253  1.8853
  521SOL    HW2 1563   2.682   2.482   1.657  0.0250  1.6293  1.3741
  522SOL     OW 1564   4.439   3.955   4.670  0.0264  0.2546 -0.1280
  522SOL    HW1 1565   4.415   3.879   4.618  3.0156  1.6876 -4.1140
  522SOL    HW2 1566   4.468   3.919   4.754  2.3720 -3.2415 -2.2078
  523SOL     OW 1567   0.003   1.087   4.965 -0.0831  0.0016  0.1553
  523SOL    HW1 1568   0.069   1.149   4.934 -0.1735  0.4201  0.7927
  523SOL    HW2 1569   0.048   1.002   4.962  0.7114  0.3628  1.1948
  524SOL     OW 1570   5.446   2.969   4.743  0.1488 -0.3483  0.4210
  524SOL    HW1 1571   5.443   2.924   4.658 -0.8946  0.8066 -0.1887
  524SOL    HW2 1572   5.356   2.963   4.776  0.5654 -0.8644  1.5078
  525SOL     OW 1573   1.413   4.834   0.021 -0.0861 -0.2256  0.0096
  525SOL    HW1 1574   1.470   4.911   0.015 -1.1863  0.5101 -1.5935
  525SOL    HW2 1575   1.328   4.869   0.047 -0.0007 -1.2468  1.8397
  526SOL     OW 1576   2.526   1.998   0.814 -0.5296  0.2637  0.0239
  526SOL    HW1 1577   2.537   1.988   0.720 -2.8445 -3.3666 -0.0245
  526SOL    HW2 1578   2.445   2.047   0.824  0.1478  1.3965  0.2183
  527SOL     OW 1579   3.829   1.238   4.420 -0.6211 -0.4567  0.2945
  527SOL    HW1 1580   3.906   1.210   4.371  0.8343  0.1989  2.0721
  527SOL    HW2 1581   3.768   1.271   4.354  0.3494 -1.5436 -1.2096
  528SOL     OW 1582   0.238   1.914   5.684  0.1538  0.0746 -0.0250
  528SOL    HW1 1583   0.191   1.893   5.603  1.4827  1.5347 -1.2368
  528SOL    HW2 1584   0.259   2.007   5.677  1.9524 -0.1821  1.1037
  529SOL     OW 1585   3.309   1.867   0.624  0.6925 -0.6965 -0.5087
  529SOL    HW1 1586   3.353   1.948   0.597 -2.0904  1.2655  0.3811
  529SOL    HW2 1587   3.354   1.842   0.705  1.2768  0.2433 -0.5215
  530SOL     OW 1588   5.215   3.202   3.480  0.1567 -0.2285  0.4429
  530SOL    HW1 1589   5.276   3.226   3.411  0.9967  0.4189  1.3770
  530SOL    HW2 1590   5.265   3.213   3.561 -1.3368  0.7855  1.2772
  531SOL     OW 1591   5.225   5.557   2.886 -0.5574  0.2233 -0.0392
  531SOL    HW1 1592   5.215   5.648   2.915  0.2381  0.5042 -0.6027
  531SOL    HW2 1593   5.318   5.549   2.866 -0.3594 -1.0878  1.2123
  532SOL     OW 1594   1.176   3.708   3.052 -0.5595  0.2048 -0.1085
  532SOL    HW1 1595   1.113   3.722   3.123 -0.3016 -2.2348  0.7275
  532SOL    HW2 1596   1.224   3.629   3.079  1.0401  0.4597 -1.9918
  533SOL     OW 1597   1.686   2.367   3.830  0.0713 -0.1925 -0.5315
  533SOL    HW1 1598   1.600   2.368   3.872 -0.0810  0.6314 -0.8398
  533SOL    HW2 1599   1.746   2.396   3.898  0.5853 -3.4539  0.5838
  534SOL     OW 1600   3.419   3.480   2.873 -0.1171  0.3765  0.1112
  534SOL    HW1 1601   3.495   3.535   2.855  0.8672 -1.3651 -1.4135
  534SOL    HW2 1602   3.345   3.541   2.878  0.7062  1.7752 -2.7360
  535SOL     OW 1603   5.842   1.189   4.755  0.0416  0.1262  0.3793
  535SOL    HW1 1604   5.847   1.154   4.666  0.4619  0.5095  0.2447
  535SOL    HW2 1605   5.872   1.117   4.810  0.1197  0.0002  0.1767
  536SOL     OW 1606   5.884   0.890   4.599  0.6151  0.0516 -0.4409
  536SOL    HW1 1607   5.971   0.911   4.633  1.7171 -3.8711 -0.3564
  536SOL    HW2 1608   5.891   0.909   4.505  1.1188  0.8499 -0.2611
  537SOL     OW 1609   2.450   3.704   5.716 -0.9066 -0.6768 -0.0730
  537SOL    HW1 1610   2.479   3.775   5.773 -0.8671 -0.6601 -0.1135
  537SOL    HW2 1611   2.502   3.715   5.636 -1.0006 -0.6671 -0.1324
  538SOL     OW 1612   2.821   4.963   5.509 -0.1663 -0.1975 -0.4097
  538SOL    HW1 1613   2.907   4.954   5.467  0.6517 -0.5536  1.2764
  538SOL    HW2 1614   2.798   5.055   5.498  0.4089 -0.1086 -0.8977
  539SOL     OW 1615   2.449   4.525   0.083  0.7328  0.6400  0.2104
  539SOL    HW1 1616   2.412   4.575   0.010 -1.7468  0.5702  1.3638
  539SOL    HW2 1617   2.488   4.448   0.041 -0.9848  0.4063 -1.0561
  540SOL     OW 1618   0.801   0.802   2.819  0.3961 -0.1696  0.4025
  540SOL    HW1 1619   0.812   0.708   2.803  1.7975  0.1500 -0.7208
  540SOL    HW2 1620   0.889   0.838   2.810  0.0252  1.1351  1.7271
  541SOL     OW 1621  -0.003   1.534   1.508 -0.3179  0.3422  0.2209
  541SOL    HW1 1622   0.051   1.456   1.519  0.0603  0.4087 -1.0780
  541SOL    HW2 1623   0.059   1.607   1.512 -0.0469  0.3638 -2.5402
  542SOL     OW 1624   1.433   4.955   0.661  0.2880  0.1456  0.5030
  542SOL    HW1 1625   1.401   4.934   0.574  0.3275 -0.0944  0.5455
  542SOL    HW2 1626   1.366   5.012   0.699 -0.1198 -0.4067  0.6180
  543SOL     OW 1627   3.337   2.457   0.025 -0.3282  0.1790  0.1855
  543SOL    HW1 1628   3.429   2.439   0.005 -0.3977 -1.3972  1.1098
  543SOL    HW2 1629   3.291   2.377   0.000 -1.5277  1.0685 -0.5709
  544SOL     OW 1630   1.016   5.785   5.138  0.0172  0.5078 -0.1762
  544SOL    HW1 1631   1.029   5.740   5.055 -1.1451  0.6829 -0.4580
  544SOL    HW2 1632   1.060   5.728   5.202  2.3735  1.1877 -1.0719
  545SOL     OW 1633   6.004   4.090   2.650  0.0092  0.0018  0.0441
  545SOL    HW1 1634   5.910   4.105   2.653  0.0133  1.2284 -2.5180
  545SOL    HW2 1635   6.031   4.130   2.567  2.8825  0.1969  0.9760
  546SOL     OW 1636   1.819   1.047   4.815 -0.2105  0.2783  0.4827
  546SOL    HW1 1637   1.813   0.976   4.879 -0.7498  1.6252  1.9955
  546SOL    HW2 1638   1.741   1.036   4.761 -0.6330  0.0800  1.1143
  547SOL     OW 1639   3.129   0.607   4.736  0.4316 -0.3477  0.2219
  547SOL    HW1 1640   3.127   0.700   4.712  0.4860 -0.8076 -1.7503
  547SOL    HW2 1641   3.197   0.602   4.803  2.3949  0.6797 -1.5474
  548SOL     OW 1642   4.258   0.140   2.450  0.3847 -0.6817 -0.1475
  548SOL    HW1 1643   4.223   0.078   2.514  1.3942 -0.8275  0.2850
  548SOL    HW2 1644   4.193   0.140   2.379 -0.4330 -0.9955  0.5786
  549SOL     OW 1645   1.140   2.220   4.892  0.0718 -0.0966 -0.1636
  549SOL    HW1 1646   1.212   2.282   4.887 -0.9570  1.1605  0.0638
  549SOL    HW2 1647   1.152   2.163   4.817  0.2224  1.3241 -1.2652
  550SOL     OW 1648   4.542   1.162   0.067  0.0796 -0.3854 -0.7857
  550SOL    HW1 1649   4.576   1.180   0.155  0.7596 -2.3308 -0.6015
  550SOL    HW2 1650   4.447   1.176   0.076  0.2617  0.5065 -0.0450
  551SOL     OW 1651   3.803   3.048   5.709 -0.1466 -0.1237  0.4170
  551SOL    HW1 1652   3.888   3.018   5.740  0.4665  0.4846 -0.6227
  551SOL    HW2 1653   3.806   3.143   5.717 -0.0504  0.0386 -1.2482
  552SOL     OW 1654   0.603   5.808   0.335 -0.3662 -0.5889  0.3082
  552SOL    HW1 1655   0.520   5.818   0.289 -0.3135  0.3257  0.3888
  552SOL    HW2 1656   0.589   5.852   0.419  0.2143 -0.3787  0.3006
  553SOL     OW 1657   0.429   1.021   3.349 -0.0730  1.0427 -0.5782
  553SOL    HW1 1658   0.397   0.931   3.342 -1.7551  1.5341  0.3892
  553SOL    HW2 1659   0.353   1.076   3.332  0.6399  2.2843  0.0729
  554SOL     OW 1660   2.133   5.693   5.615 -0.8238 -0.1302 -0.0725
  554SOL    HW1 1661   2.184   5.655   5.544  0.9266  1.6644  0.1265
  554SOL    HW2 1662   2.085   5.766   5.574 -1.3248 -0.2819  0.2316
  555SOL     OW 1663   3.001   0.567   0.755  0.4270 -0.0177 -0.0510
  555SOL    HW1 1664   2.944   0.540   0.683  1.3268 -0.4057 -0.6311
  555SOL    HW2 1665   3.054   0.490   0.774  2.5516  1.0510 -1.2671
  556SOL     OW 1666   4.472   0.625   1.021  0.4515  0.8177 -0.1273
  556SOL    HW1 1667   4.480   0.571   0.942  1.0708  0.3934  0.2156
  556SOL    HW2 1668   4.393   0.676   1.007 -0.0417 -0.0400 -0.5484
  557SOL     OW 1669   2.128   4.391   0.975 -0.3044  0.1738  0.5286
  557SOL    HW1 1670   2.185   4.321   0.943 -1.2131 -0.0332 -0.7020
  557SOL    HW2 1671   2.178   4.432   1.046  1.2366 -0.2002 -0.2992
  558SOL     OW 1672   2.198   5.944   0.864 -0.0328  0.1254 -0.1209
  558SOL    HW1 1673   2.238   5.910   0.783  0.0223 -0.4040  0.1260
  558SOL    HW2 1674   2.129   6.003   0.833 -0.6345 -0.7863 -0.5726
  559SOL     OW 1675   0.794   5.659   2.165  0.1965  0.1417 -0.3463
  559SOL    HW1 1676   0.796   5.603   2.087 -1.8421  1.0945 -1.1661
  559SOL    HW2 1677   0.819   5.745   2.133 -1.2389  0.6702 -0.0949
  560SOL     OW 1678   0.898   0.893   1.392 -0.2805  0.7609  0.0921
  560SOL    HW1 1679   0.860   0.974   1.425 -0.3730  0.7911 -0.0891
  560SOL    HW2 1680   0.834   0.860   1.329 -1.3332 -0.6297  1.8127
  561SOL     OW 1681   1.542   0.179   5.935  0.3513  0.7063 -0.3807
  561SOL    HW1 1682   1.554   0.094   5.892  0.1771  0.5949 -0.2091
  561SOL    HW2 1683   1.617   0.231   5.905  2.1765 -0.4621  1.8525
  562SOL     OW 1684   1.938   1.559   5.466 -0.1720  0.2832  0.8049
  562SOL    HW1 1685   2.032   1.545   5.451 -0.0954  0.2937  1.2611
  562SOL    HW2 1686   1.912   1.622   5.399  0.0222 -0.1445  0.3185
  563SOL     OW 1687   5.415   0.343   4.465 -0.0473  0.1327 -0.6389
  563SOL    HW1 1688   5.325   0.353   4.432 -0.6718  0.8442  1.1845
  563SOL    HW2 1689   5.446   0.432   4.478  0.5851 -0.1266 -0.3362
  564SOL     OW 1690   5.775   5.553   0.631  0.1244 -0.4341 -0.0529
  564SOL    HW1 1691   5.785   5.511   0.546  2.9668 -0.9207  0.4005
  564SOL    HW2 1692   5.865   5.573   0.658 -0.7534  0.6231  2.3873
  565SOL     OW 1693   4.691   4.772   4.977  0.1821 -0.2420 -0.5224
  565SOL    HW1 1694   4.680   4.865   4.996  2.9795 -0.1692  1.2006
  565SOL    HW2 1695   4.724   4.734   5.058 -1.2642 -2.8948 -1.0405
  566SOL     OW 1696   1.402   0.744   0.964  0.5361 -0.1319  0.0056
  566SOL    HW1 1697   1.358   0.730   1.048  1.3879  0.0446  0.4881
  566SOL    HW2 1698   1.364   0.825   0.930  0.8183  0.2809  0.6465
  567SOL     OW 1699   0.555   3.551   5.011 -0.4868 -0.2270  0.1399
  567SOL    HW1 1700   0.646   3.567   4.986 -0.8107  0.3001 -0.7652
  567SOL    HW2 1701   0.513   3.524   4.930 -1.0799 -0.7226  0.6107
  568SOL     OW 1702   2.605   4.837   0.967  0.2216 -0.3832 -0.4430
  568SOL    HW1 1703   2.599   4.784   0.887  0.1709  2.1336 -2.2106
  568SOL    HW2 1704   2.666   4.907   0.945  0.2451  0.3705  1.7794
  569SOL     OW 1705   3.687   2.652   4.745 -0.1700  0.1875 -0.3275
  569SOL    HW1 1706   3.680   2.741   4.780  0.4540  0.0242  0.2280
  569SOL    HW2 1707   3.629   2.600   4.801  1.9021 -0.3422  1.4432
  570SOL     OW 1708   0.424   0.304   2.828 -0.3557 -0.2430 -0.0949
  570SOL    HW1 1709   0.430   0.221   2.780  0.3139 -0.5329  0.4611
  570SOL    HW2 1710   0.415   0.370   2.760  0.9321 -0.6138 -0.6701
  571SOL     OW 1711   4.213   4.257   0.138 -0.1624  0.0285  0.4065
  571SOL    HW1 1712   4.226   4.333   0.195 -3.4156  2.5475 -1.8812
  571SOL    HW2 1713   4.298   4.244   0.096  0.4933  2.4516  0.8221
  572SOL     OW 1714   0.266   1.792   3.338 -0.5132  0.3325  0.4292
  572SOL    HW1 1715   0.253   1.883   3.366  0.8730  0.5183  0.5600
  572SOL    HW2 1716   0.203   1.780   3.267  0.6923  2.1121 -1.0607
  573SOL     OW 1717   2.748   1.682   2.685  0.4373  0.1769  0.0059
  573SOL    HW1 1718   2.745   1.595   2.644 -0.8159 -0.0759  0.5847
  573SOL    HW2 1719   2.656   1.702   2.705  0.7847  1.3434  0.4965
  574SOL     OW 1720   2.815   1.145   3.939 -0.2424  0.0615 -0.1132
  574SOL    HW1 1721   2.817   1.224   3.994 -0.9924  0.5474 -0.7701
  574SOL    HW2 1722   2.829   1.073   4.000 -1.3542  0.5706  0.7795
  575SOL     OW 1723   5.273   2.044   1.642  0.0697  0.0059  0.6678
  575SOL    HW1 1724   5.213   1.996   1.585  0.7229  0.5888 -0.5455
  575SOL    HW2 1725   5.318   1.975   1.692  1.9133 -0.8313 -1.9550
  576SOL     OW 1726   4.498   4.194   3.235 -0.0389  0.3438  0.5202
  576SOL    HW1 1727   4.439   4.207   3.310 -0.7865  1.4336 -0.2190
  576SOL    HW2 1728   4.551   4.118   3.259 -2.0353 -0.9756  1.0617
  577SOL     OW 1729   2.080   4.639   2.546  0.3676  0.0789 -0.2146
  577SOL    HW1 1730   2.010   4.574   2.543  0.2731  0.1369  0.5099
  577SOL    HW2 1731   2.130   4.617   2.625 -0.6885  1.9037  1.0418
  578SOL     OW 1732   4.889   1.236   0.876 -0.1916 -0.0288  0.6381
  578SOL    HW1 1733   4.910   1.301   0.944  0.4397 -1.4692  1.8929
  578SOL    HW2 1734   4.824   1.180   0.917  0.5635 -1.2168  0.2410
  579SOL     OW 1735   0.482   1.787   5.207 -0.2225 -0.3053 -0.0969
  579SOL    HW1 1736   0.452   1.870   5.244  1.7238 -0.3698  1.8231
  579SOL    HW2 1737   0.534   1.813   5.131  1.5176  0.4390  1.2597
  580SOL     OW 1738   1.860   0.020   3.324 -0.2148  0.0384 -0.5513
  580SOL    HW1 1739   1.938   0.064   3.291 -1.2088  1.8724 -0.6181
  580SOL    HW2 1740   1.865   0.031   3.419 -0.8384  1.0303 -0.6158
  581SOL     OW 1741   0.949   1.868   4.055 -0.8857  0.1834  0.1392
  581SOL    HW1 1742   0.982   1.828   3.975  0.4247  0.3037  0.5898
  581SOL    HW2 1743   0.938   1.795   4.116  0.4210  0.3289  0.5947
  582SOL     OW 1744   0.925   1.588   4.859 -0.0159  0.2020 -0.1975
  582SOL    HW1 1745   0.903   1.679   4.836  0.8219  0.8406  1.3491
  582SOL    HW2 1746   0.861   1.565   4.927  1.0292  0.3937  0.8883
  583SOL     OW 1747   5.690   5.376   5.413  0.4310 -0.3598  0.2990
  583SOL    HW1 1748   5.658   5.466   5.404 -0.9577 -0.8178  0.4364
  583SOL    HW2 1749   5.785   5.384   5.409  0.3269  0.7213 -3.2447
  584SOL     OW 1750   2.101   2.443   4.655  0.4696  0.0129  0.0956
  584SOL    HW1 1751   2.090   2.522   4.603 -2.3849 -0.4221 -0.1033
  584SOL    HW2 1752   2.018   2.397   4.647  1.0576 -1.6585  2.4685
  585SOL     OW 1753   3.874   0.440   2.827 -0.0811  0.6451 -0.2291
  585SOL    HW1 1754   3.800   0.381   2.810 -1.9420  1.9258  2.5832
  585SOL    HW2 1755   3.876   0.497   2.750 -0.6715 -0.6668 -1.2818
  586SOL     OW 1756   1.464   1.809   5.529 -0.5563  0.2700 -0.3428
  586SOL    HW1 1757   1.494   1.781   5.443  0.2503 -2.4732  0.6959
  586SOL    HW2 1758   1.530   1.774   5.589 -0.8861  2.4257  1.3995
  587SOL     OW 1759   0.882   4.580   3.905  0.6856 -0.3433 -0.0906
  587SOL    HW1 1760   0.968   4.610   3.874  0.7941 -3.2513 -3.2672
  587SOL    HW2 1761   0.819   4.631   3.854  0.5592  0.2630  0.6537
  588SOL     OW 1762   5.956   0.946   0.149  0.6378 -0.1430  0.3642
  588SOL    HW1 1763   5.929   0.961   0.240 -0.0881 -0.9158  0.2928
  588SOL    HW2 1764   5.877   0.961   0.098  0.4086 -1.9447  0.1012
  589SOL     OW 1765   1.084   0.158   4.942 -0.7328 -0.0804  0.2758
  589SOL    HW1 1766   1.170   0.121   4.926  0.3515  2.1651  0.5927
  589SOL    HW2 1767   1.027   0.116   4.878  0.3509 -2.2897  0.6686
  590SOL     OW 1768   3.354   1.613   5.514 -0.0250 -0.0646  1.0641
  590SOL    HW1 1769   3.443   1.650   5.515 -0.1789  0.3138  1.0701
  590SOL    HW2 1770   3.298   1.689   5.499 -0.1963 -0.6016 -1.3459
  591SOL     OW 1771   1.378   4.848   5.140 -0.2616 -0.6448 -0.3343
  591SOL    HW1 1772   1.414   4.872   5.055  0.9254 -1.1674 -0.0048
  591SOL    HW2 1773   1.290   4.887   5.142  0.3202  0.7668 -1.1282
  592SOL     OW 1774   1.418   4.321   5.781 -0.3716 -0.5680  0.8527
  592SOL    HW1 1775   1.347   4.275   5.737 -1.6398  0.7861  1.3952
  592SOL    HW2 1776   1.393   4.322   5.873 -0.4586  1.2424  0.8457
  593SOL     OW 1777   0.295   0.427   0.180 -0.1546  0.0807 -0.2023
  593SOL    HW1 1778   0.256   0.433   0.093 -1.4843 -2.5010  0.1425
  593SOL    HW2 1779   0.347   0.347   0.178 -0.3043 -0.0851  1.4324
  594SOL     OW 1780   3.099   2.065   2.706  0.2880  0.2806  0.4209
  594SOL    HW1 1781   3.153   1.997   2.745  1.1510  1.5776  1.6064
  594SOL    HW2 1782   3.155   2.105   2.639 -0.0501  0.1281  0.0414
  595SOL     OW 1783   1.657   1.932   4.540  0.4233 -0.9130 -0.3738
  595SOL    HW1 1784   1.710   1.930   4.620 -0.6942 -0.6906  0.4118
  595SOL    HW2 1785   1.599   1.856   4.549  0.9841 -1.4879 -1.4890
  596SOL     OW 1786   4.065   1.700   0.768  0.1114  0.0855  0.0934
  596SOL    HW1 1787   4.118   1.729   0.842  0.5657 -1.5957  0.4724
  596SOL    HW2 1788   4.017   1.624   0.801 -1.1769  0.4858 -0.7852
  597SOL     OW 1789   0.307   5.234   3.012  1.0521 -0.4414 -0.4067
  597SOL    HW1 1790   0.385   5.212   3.063  0.0647 -1.2334  0.8597
  597SOL    HW2 1791   0.340   5.273   2.932  2.7273 -0.3856  0.2709
  598SOL     OW 1792   1.306   0.932   4.101  0.4035  0.7323 -0.1076
  598SOL    HW1 1793   1.312   0.932   4.197  2.4732 -1.0741 -0.1547
  598SOL    HW2 1794   1.395   0.913   4.072 -0.1066  1.5502 -2.4427
  599SOL     OW 1795   0.718   0.955   5.579 -0.0229  0.8098 -0.3085
  599SOL    HW1 1796   0.790   0.977   5.638 -0.9549  0.5512  0.9656
  599SOL    HW2 1797   0.670   0.886   5.625 -1.0435  0.9259 -1.1677
  600SOL     OW 1798   0.449   1.273   3.980 -0.6102  0.1767 -0.1226
  600SOL    HW1 1799   0.456   1.366   3.960  1.4033 -0.2809 -1.9614
  600SOL    HW2 1800   0.536   1.248   4.009 -1.5039 -0.8781  1.8491
  601SOL     OW 1801   4.009   4.208   2.873  0.3745  0.0934 -0.0098
  601SOL    HW1 1802   4.103   4.217   2.855  0.1456  1.1623 -0.7875
  601SOL    HW2 1803   4.001   4.230   2.966  0.5993  2.7338 -0.5317
  602SOL     OW 1804   0.745   4.450   4.535 -0.4309 -0.2724 -0.3993
  602SOL    HW1 1805   0.684   4.517   4.504 -0.1018 -0.5758 -1.7741
  602SOL    HW2 1806   0.700   4.409   4.609 -0.7739  1.2289  0.2688
  603SOL     OW 1807   1.951   0.072   4.550  0.0428  0.1491 -0.2674
  603SOL    HW1 1808   1.996  -0.010   4.574  1.9558  1.6574  1.6888
  603SOL    HW2 1809   1.953   0.073   4.454  1.6583 -1.2187 -0.2994
  604SOL     OW 1810   4.310   5.418   5.498  0.2134 -0.4313 -0.2072
  604SOL    HW1 1811   4.227   5.372   5.485  0.5993 -1.4136  0.5953
  604SOL    HW2 1812   4.303   5.455   5.586  0.6572 -0.5968 -0.1018
  605SOL     OW 1813   3.005   5.089   3.689 -0.6690  0.4615 -0.7272
  605SOL    HW1 1814   2.911   5.091   3.671 -0.9816 -1.1341  0.4651
  605SOL    HW2 1815   3.010   5.089   3.785  0.3620 -2.6442 -0.6900
  606SOL     OW 1816   2.277   1.087   4.150 -0.2516 -0.3664  0.0902
  606SOL    HW1 1817   2.325   1.097   4.068  0.2538  0.7591  0.5078
  606SOL    HW2 1818   2.307   1.003   4.185  2.0781  0.6512  0.7307
  607SOL     OW 1819   2.984   1.538   4.592  0.6842  0.8874  0.5021
  607SOL    HW1 1820   3.011   1.476   4.659  1.9995 -1.6746 -2.1547
  607SOL    HW2 1821   3.060   1.595   4.580  0.4360  1.3681  1.1623
  608SOL     OW 1822   0.532   0.836   3.830 -0.0213  0.4383 -0.2232
  608SOL    HW1 1823   0.515   0.782   3.753 -1.5367 -0.1050  0.4436
  608SOL    HW2 1824   0.618   0.809   3.860 -0.1248 -0.5498 -0.7670
  609SOL     OW 1825   2.353   0.565   4.341  0.0266 -0.3003 -0.3377
  609SOL    HW1 1826   2.320   0.655   4.348  0.9260  0.1342 -1.4357
  609SOL    HW2 1827   2.401   0.551   4.423 -1.8772 -0.5566  0.7955
  610SOL     OW 1828   5.781   2.095   4.700 -0.1751 -0.9726  0.2141
  610SOL    HW1 1829   5.777   2.151   4.777 -1.8834 -0.7702  0.0185
  610SOL    HW2 1830   5.743   2.012   4.728  1.9575 -1.9674  0.3888
  611SOL     OW 1831   2.863   1.347   4.421  0.1889 -0.2781  0.2998
  611SOL    HW1 1832   2.878   1.431   4.465 -0.4385  0.0592 -0.1105
  611SOL    HW2 1833   2.924   1.286   4.463  1.7582  0.7194 -0.4234
  612SOL     OW 1834   4.287   4.836   3.425 -0.1339 -0.0521  0.8490
  612SOL    HW1 1835   4.236   4.774   3.373 -1.0824  1.4591 -0.1372
  612SOL    HW2 1836   4.373   4.836   3.384 -0.0875 -0.8146  0.9441
  613SOL     OW 1837   1.824   5.385   5.902 -0.5093 -0.1329 -0.3053
  613SOL    HW1 1838   1.840   5.446   5.829 -0.7823 -0.4007 -0.5909
  613SOL    HW2 1839   1.911   5.363   5.934 -0.2311 -1.6807 -1.9307
  614SOL     OW 1840   2.422   1.633   0.283  0.0210  0.0981 -0.4045
  614SOL    HW1 1841   2.372   1.710   0.258 -0.4779 -0.2984 -0.6384
  614SOL    HW2 1842   2.395   1.565   0.221  1.0853 -0.0394 -0.7438
  615SOL     OW 1843   0.332   4.927   2.234  0.1561  0.1937 -0.2912
  615SOL    HW1 1844   0.373   4.847   2.202 -0.5344  0.2453 -1.3651
  615SOL    HW2 1845   0.288   4.900   2.315 -2.7466 -1.3666 -2.2165
  616SOL     OW 1846   4.525   1.537   4.701  0.2784 -0.3723 -0.3693
  616SOL    HW1 1847   4.436   1.501   4.701  0.2290 -0.4706  2.2839
  616SOL    HW2 1848   4.522   1.608   4.766  2.3188 -1.0186  0.5240
  617SOL     OW 1849   1.935   1.441   4.396 -0.1060 -0.5492 -0.1143
  617SOL    HW1 1850   1.903   1.493   4.323 -1.7839 -0.9734  0.2686
  617SOL    HW2 1851   2.029   1.435   4.382  0.3175  3.0958  0.1416
  618SOL     OW 1852   0.406   2.333   5.350  0.1988 -0.1557 -0.1372
  618SOL    HW1 1853   0.349   2.331   5.273  0.7334 -2.2618 -0.5500
  618SOL    HW2 1854   0.356   2.382   5.415 -1.8114 -1.3049 -0.7020
  619SOL     OW 1855   0.694   1.159   4.810 -0.1010 -0.0133  0.2664
  619SOL    HW1 1856   0.701   1.152   4.905 -0.6798 -0.1019  0.3042
  619SOL    HW2 1857   0.611   1.205   4.795 -0.5084 -0.8939 -0.2197
  620SOL     OW 1858   2.928   5.344   2.840 -0.0305  0.7070 -0.5240
  620SOL    HW1 1859   2.923   5.262   2.890 -0.7844  2.0840  1.8397
  620SOL    HW2 1860   2.928   5.413   2.907  0.0722  2.6837 -2.4338
  621SOL     OW 1861   4.178   1.916   4.910  0.4053  0.2898 -0.9618
  621SOL    HW1 1862   4.120   1.901   4.836 -0.0447 -2.9791 -0.1146
  621SOL    HW2 1863   4.173   2.010   4.926 -2.4973  0.5397 -2.6404
  622SOL     OW 1864   2.069   0.869   4.212 -0.1190 -0.1604 -0.5150
  622SOL    HW1 1865   2.129   0.864   4.287  0.1223 -1.8755 -0.7692
  622SOL    HW2 1866   2.041   0.960   4.209  2.4706  0.7211 -0.3646
  623SOL     OW 1867   0.860   0.825   3.885 -0.3659  0.0568  0.1047
  623SOL    HW1 1868   0.954   0.825   3.865 -0.2741 -2.3609  0.1651
  623SOL    HW2 1869   0.856   0.815   3.980 -0.6538 -0.7175  0.0191
  624SOL     OW 1870   1.321   0.943   5.971  0.7507  0.6376  0.5007
  624SOL    HW1 1871   1.383   0.894   5.917  0.7066 -0.0529  1.0550
  624SOL    HW2 1872   1.236   0.926   5.931  0.6078 -0.5789  1.2472
  625SOL     OW 1873   0.393   1.033   4.618 -0.5154 -0.2843 -0.3619
  625SOL    HW1 1874   0.459   1.082   4.667 -1.0338 -0.4217  0.5023
  625SOL    HW2 1875   0.438   1.002   4.540  0.4144 -0.3045  0.1726
  626SOL     OW 1876   0.680   5.613   1.706 -0.2265  0.1053 -0.2385
  626SOL    HW1 1877   0.720   5.672   1.643 -0.8738 -0.2436 -0.9983
  626SOL    HW2 1878   0.598   5.656   1.729 -0.9046 -0.6712 -1.1206
  627SOL     OW 1879   5.425   0.467   5.315  0.1841 -0.3779 -0.2552
  627SOL    HW1 1880   5.391   0.557   5.320 -1.1318 -0.8926  0.6878
  627SOL    HW2 1881   5.513   0.473   5.351 -0.8377  0.1237  2.4023
  628SOL     OW 1882   4.682   0.507   4.184 -0.3445  0.0608 -0.2388
  628SOL    HW1 1883   4.668   0.513   4.278 -1.1529 -1.4259 -0.2441
  628SOL    HW2 1884   4.595   0.515   4.146 -0.5852 -3.1767 -0.6146
  629SOL     OW 1885   4.421   5.121   3.530 -0.1104  0.0094  0.0269
  629SOL    HW1 1886   4.459   5.126   3.443  0.0039 -1.9283 -0.0706
  629SOL    HW2 1887   4.335   5.080   3.517 -0.4393  0.4448  0.7378
  630SOL     OW 1888   0.842   0.949   4.725  0.7189 -0.2972 -0.1827
  630SOL    HW1 1889   0.777   1.015   4.751  0.5038 -1.2616  1.9676
  630SOL    HW2 1890   0.915   1.000   4.689  0.0191  1.0297  0.2247
  631SOL     OW 1891   2.016   0.048   4.911 -0.2000 -0.5476 -0.0634
  631SOL    HW1 1892   1.937   0.084   4.869 -0.1851 -0.9199 -0.4148
  631SOL    HW2 1893   2.074   0.123   4.922  0.4726 -0.6752 -2.2031
  632SOL     OW 1894   2.667   0.737   4.273  0.0909 -0.0402 -0.3483
  632SOL    HW1 1895   2.738   0.677   4.251  0.0137  0.1791 -1.2370
  632SOL    HW2 1896   2.643   0.714   4.362 -0.1076 -1.5181 -0.7498
  633SOL     OW 1897   5.050   1.231   5.756  0.2926  0.0215  0.1147
  633SOL    HW1 1898   5.103   1.262   5.683 -1.2266  0.6468 -0.7925
  633SOL    HW2 1899   4.969   1.199   5.715 -1.1706  1.6093  1.5679
  634SOL     OW 1900   2.135   2.394   1.950 -0.0921 -0.6036 -0.5845
  634SOL    HW1 1901   2.223   2.365   1.973  0.6640  0.5015 -1.9433
  634SOL    HW2 1902   2.105   2.331   1.885  0.6614  0.3216 -1.8710
  635SOL     OW 1903   1.892   0.605   1.821 -0.3474 -0.7952  0.2393
  635SOL    HW1 1904   1.867   0.697   1.830  0.2753 -0.6203  0.2188
  635SOL    HW2 1905   1.879   0.586   1.728 -0.2355 -0.6548  0.1940
  636SOL     OW 1906   4.850   1.600   4.849  0.2191 -0.2967 -0.3092
  636SOL    HW1 1907   4.847   1.617   4.755 -0.0133 -2.7242 -0.8000
  636SOL    HW2 1908   4.943   1.587   4.868  0.4295  1.5237  0.1218
  637SOL     OW 1909   2.677   5.891   3.921 -0.3393  0.3174 -0.0333
  637SOL    HW1 1910   2.694   5.964   3.981 -0.7040  0.2945  0.0974
  637SOL    HW2 1911   2.754   5.835   3.930 -0.0976  0.6371 -0.0649
  638SOL     OW 1912   5.198   2.116   0.328  0.0711 -0.2352 -0.3956
  638SOL    HW1 1913   5.226   2.199   0.289 -1.9960  0.7947  0.1214
  638SOL    HW2 1914   5.276   2.081   0.369  1.4244  0.5379 -2.1607
  639SOL     OW 1915   0.652   2.539   1.485 -0.5628 -0.3643 -0.1944
  639SOL    HW1 1916   0.605   2.613   1.448  0.8137 -0.4674 -2.3020
  639SOL    HW2 1917   0.635   2.467   1.425  0.1010 -1.1176  0.4867
  640SOL     OW 1918   0.602   3.323   0.182  0.0859 -0.2184  0.5492
  640SOL    HW1 1919   0.534   3.335   0.248  0.1501  0.8715  0.4430
  640SOL    HW2 1920   0.682   3.353   0.226  0.1358  0.4616  0.0039
  641SOL     OW 1921   4.704   0.740   5.845 -0.5856 -0.2031 -0.1505
  641SOL    HW1 1922   4.650   0.696   5.910  1.4703  0.4809  2.1733
  641SOL    HW2 1923   4.669   0.829   5.840 -0.4881 -0.1388  0.3312
  642SOL     OW 1924   0.764   5.473   4.773 -0.5810 -0.2254 -0.9036
  642SOL    HW1 1925   0.818   5.481   4.695 -0.7376  0.9065 -0.9110
  642SOL    HW2 1926   0.686   5.425   4.743  0.4618 -2.0383 -0.8453
  643SOL     OW 1927   3.526   5.032   1.713  0.4735 -0.2351 -0.0663
  643SOL    HW1 1928   3.570   5.093   1.772 -1.9915  0.8869  0.7627
  643SOL    HW2 1929   3.447   5.006   1.760 -1.0916 -0.0876 -2.4141
  644SOL     OW 1930   4.435   3.645   0.226 -0.4752  0.1970 -0.3094
  644SOL    HW1 1931   4.499   3.635   0.297 -1.7271 -0.0504  0.8070
  644SOL    HW2 1932   4.428   3.739   0.213  0.2906  0.2239 -0.6327
  645SOL     OW 1933   2.046   0.786   4.502 -0.2228 -0.4451 -0.5768
  645SOL    HW1 1934   1.960   0.810   4.465 -0.6446 -1.6892 -0.4368
  645SOL    HW2 1935   2.028   0.767   4.594  0.8811  2.9965  0.5207
  646SOL     OW 1936   0.663   3.462   3.307  0.3532  0.3900  0.3548
  646SOL    HW1 1937   0.617   3.390   3.264 -0.5961  1.1682  0.0384
  646SOL    HW2 1938   0.611   3.480   3.386 -0.9792  2.4453 -0.8962
  647SOL     OW 1939   1.727   0.494   0.217 -0.5792 -0.0063 -0.7712
  647SOL    HW1 1940   1.762   0.488   0.305  0.4937  1.0594 -1.1028
  647SOL    HW2 1941   1.802   0.518   0.162 -1.4372  0.4485 -1.7982
  648SOL     OW 1942   4.621   5.808   4.884  0.4612 -0.6296  0.3254
  648SOL    HW1 1943   4.557   5.876   4.864  0.1168 -1.0169  0.1063
  648SOL    HW2 1944   4.706   5.848   4.866  0.1900 -1.4837 -3.7476
  649SOL     OW 1945   5.137   0.716   4.983 -0.2753  0.2486  0.4220
  649SOL    HW1 1946   5.076   0.788   4.966 -0.2446 -0.1403 -1.5729
  649SOL    HW2 1947   5.083   0.638   4.984 -0.0602  0.1014  0.6690
  650SOL     OW 1948   2.801   0.502   1.536  0.0395 -0.3974 -0.2120
  650SOL    HW1 1949   2.853   0.581   1.551  0.1901 -0.2447 -1.4597
  650SOL    HW2 1950   2.720   0.534   1.496  0.4029 -0.9236 -1.4066
  651SOL     OW 1951   1.090   1.933   3.209  0.2667 -0.1773 -0.2095
  651SOL    HW1 1952   1.127   1.954   3.295  0.4194  0.4005 -0.4122
  651SOL    HW2 1953   1.162   1.890   3.162  0.0611 -0.8581  0.0840
  652SOL     OW 1954   0.938   1.633   1.386  0.4326 -0.6197 -1.0203
  652SOL    HW1 1955   0.868   1.697   1.374 -0.0595 -0.4639  1.8278
  652SOL    HW2 1956   0.973   1.618   1.299 -0.2021  2.6449 -1.9649
  653SOL     OW 1957   0.313   3.066   1.588 -0.1562  0.1947 -0.0466
  653SOL    HW1 1958   0.343   3.153   1.562  0.2707 -0.5082 -2.1150
  653SOL    HW2 1959   0.291   3.075   1.681 -0.5187  2.5976 -0.2953
  654SOL     OW 1960   2.764   0.454   0.906  0.2798 -0.1747  0.3538
  654SOL    HW1 1961   2.849   0.459   0.862  0.6043 -0.5328  0.9219
  654SOL    HW2 1962   2.775   0.384   0.970 -1.1201 -1.7139 -0.9915
  655SOL     OW 1963   4.263   5.320   1.532 -0.5579 -0.3236  0.0457
  655SOL    HW1 1964   4.319   5.382   1.578 -0.9443 -0.5078  0.7817
  655SOL    HW2 1965   4.194   5.375   1.493 -0.7523 -0.2541  0.4770
  656SOL     OW 1966   4.785   4.001   5.861  0.5732 -0.2151 -0.1470
  656SOL    HW1 1967   4.805   3.921   5.813  1.1627 -0.9072  1.1928
  656SOL    HW2 1968   4.842   3.997   5.939  2.2806  2.5660 -1.0964
  657SOL     OW 1969   2.902   5.603   4.713  0.4537 -0.5116 -0.1668
  657SOL    HW1 1970   2.840   5.675   4.721 -1.4976 -2.0674 -0.4009
  657SOL    HW2 1971   2.988   5.642   4.730 -0.7315  1.4193  1.9344
  658SOL     OW 1972   0.860   3.074   0.618 -0.2604  0.2110  0.0353
  658SOL    HW1 1973   0.845   3.041   0.707  1.5706 -0.4315  0.1666
  658SOL    HW2 1974   0.912   3.153   0.631  1.1379 -0.5817 -0.4467
  659SOL     OW 1975   4.143   3.718   1.069 -0.4700 -0.4251 -1.0512
  659SOL    HW1 1976   4.114   3.672   1.148  0.6792  0.1005 -0.2921
  659SOL    HW2 1977   4.147   3.650   1.002 -0.7740 -1.0274 -0.4741
  660SOL     OW 1978   0.399   0.311   4.447 -0.1530  0.2240 -0.2043
  660SOL    HW1 1979   0.307   0.297   4.425  0.1373  1.2893 -2.3543
  660SOL    HW2 1980   0.404   0.291   4.540 -2.4192 -0.4641 -0.1561
  661SOL     OW 1981   5.264   4.090   5.032 -0.3787 -0.0000  0.4117
  661SOL    HW1 1982   5.193   4.080   4.969 -0.1224 -1.7101  0.3499
  661SOL    HW2 1983   5.342   4.058   4.986  0.4663  1.7731  0.5002
  662SOL     OW 1984   5.719   5.104   1.756 -0.2228 -0.2202 -0.4599
  662SOL    HW1 1985   5.786   5.140   1.698 -0.3697  1.5976  0.4280
  662SOL    HW2 1986   5.638   5.109   1.705 -0.6675  2.9506  0.3457
  663SOL     OW 1987   2.339   5.481   1.654  0.4345  0.1469  0.3536
  663SOL    HW1 1988   2.379   5.461   1.570  1.0723  0.1307  0.6462
  663SOL    HW2 1989   2.380   5.565   1.679  1.4738 -0.6272  1.3734
  664SOL     OW 1990   5.264   4.924   4.632  0.5108 -0.7337 -0.0595
  664SOL    HW1 1991   5.350   4.958   4.658 -0.2115 -0.6268  2.5058
  664SOL    HW2 1992   5.236   4.872   4.707 -2.6490  1.0955  0.2078
  665SOL     OW 1993   2.123   0.542   3.737  0.1477 -0.4283  0.0869
  665SOL    HW1 1994   2.155   0.561   3.825 -0.4568 -1.1720  0.4810
  665SOL    HW2 1995   2.030   0.563   3.740  0.7711  3.3276 -1.5175
  666SOL     OW 1996   1.872   5.751   0.308  0.2072  0.2819  0.3739
  666SOL    HW1 1997   1.782   5.783   0.312  0.5845  1.6615 -1.2737
  666SOL    HW2 1998   1.906   5.765   0.396 -0.8322  0.8200  0.7072
  667SOL     OW 1999   0.011   4.112   3.901  1.0863 -0.6373 -0.1070
  667SOL    HW1 2000   0.105   4.107   3.919  1.1585 -0.4082 -0.4093
  667SOL    HW2 2001  -0.030   4.060   3.971  1.3504  0.2789  0.7602
  668SOL     OW 2002   1.223   1.469   0.190 -0.0025 -0.1503  0.0312
  668SOL    HW1 2003   1.262   1.435   0.109 -2.1188 -0.0497 -1.1023
  668SOL    HW2 2004   1.232   1.398   0.253  2.3098  0.0188 -0.0298
  669SOL     OW 2005   0.590   2.764   1.236 -0.1557 -0.0207 -0.2258
  669SOL    HW1 2006   0.500   2.732   1.235 -0.4309  0.7314 -0.3935
  669SOL    HW2 2007   0.585   2.848   1.283  0.4007  0.1810 -0.5177
  670SOL     OW 2008   2.756   2.680   4.667 -0.4594 -0.0062  0.5478
  670SOL    HW1 2009   2.766   2.661   4.574 -1.0839 -0.0714  0.4925
  670SOL    HW2 2010   2.833   2.640   4.708  0.0338  0.3874  0.0138
  671SOL     OW 2011   0.751   3.894   0.457 -0.1414 -0.0990  0.1930
  671SOL    HW1 2012   0.657   3.879   0.470 -0.7793  2.0894 -1.4242
  671SOL    HW2 2013   0.792   3.815   0.493 -2.6037 -1.3401  0.5283
  672SOL     OW 2014   1.572   3.600   1.907  0.0061 -0.6995  0.0741
  672SOL    HW1 2015   1.519   3.633   1.835 -0.2294 -0.4890  0.3402
  672SOL    HW2 2016   1.651   3.565   1.865  0.7853  1.1829 -0.1493
  673SOL     OW 2017   5.066   4.253   3.629  0.0972  0.3809  0.1421
  673SOL    HW1 2018   5.013   4.221   3.701  1.1540  1.8420  1.6472
  673SOL    HW2 2019   5.022   4.334   3.601  0.1961  0.3103 -0.2189
  674SOL     OW 2020   1.377   1.950   3.691  0.1295  0.0211 -0.5901
  674SOL    HW1 2021   1.420   1.880   3.740 -1.7594 -0.6166  0.2741
  674SOL    HW2 2022   1.380   2.025   3.750 -0.7957 -0.3194 -0.0775
  675SOL     OW 2023   1.516   4.608   0.075 -0.0992 -0.2798  0.1089
  675SOL    HW1 2024   1.465   4.685   0.053  1.1852  0.6074  0.1235
  675SOL    HW2 2025   1.593   4.612   0.018  0.4215 -1.0629  0.7249
  676SOL     OW 2026   1.632   5.815   0.088  0.1982 -0.4559  0.0485
  676SOL    HW1 2027   1.614   5.881   0.155  0.2143 -1.0847  0.6732
  676SOL    HW2 2028   1.606   5.732   0.127 -0.5985 -0.7400 -1.0366
  677SOL     OW 2029   3.529   0.918   1.583  0.1321 -0.1507  0.3811
  677SOL    HW1 2030   3.444   0.954   1.559  0.0157 -0.9416 -0.4368
  677SOL    HW2 2031   3.571   0.988   1.635  0.3286  1.5729 -1.9557
  678SOL     OW 2032   0.391   1.238   2.382 -0.0768 -0.0645 -1.2373
  678SOL    HW1 2033   0.485   1.221   2.389 -0.5011 -2.1996  0.2285
  678SOL    HW2 2034   0.369   1.216   2.292  0.4914 -1.7010 -1.0044
  679SOL     OW 2035   4.828   4.040   0.792  0.4855  0.0886 -0.5231
  679SOL    HW1 2036   4.829   3.986   0.712  0.4576 -1.3851  0.4422
  679SOL    HW2 2037   4.737   4.036   0.822  0.2029  1.6712 -1.0528
  680SOL     OW 2038   0.996   5.544   4.014  0.1376 -0.0758  0.4986
  680SOL    HW1 2039   1.089   5.565   4.010  0.1658 -0.2081  0.4532
  680SOL    HW2 2040   0.952   5.629   4.016  0.1246  0.0799 -2.2674
  681SOL     OW 2041   0.857   1.282   5.305 -0.3734  0.2747  0.0989
  681SOL    HW1 2042   0.764   1.261   5.314 -0.4864 -0.1551 -1.6845
  681SOL    HW2 2043   0.902   1.217   5.359 -1.1105  0.9723  1.6087
  682SOL     OW 2044   1.419   1.176   4.353 -0.4918  0.4326  0.4703
  682SOL    HW1 2045   1.351   1.229   4.396  0.8077  0.6570  2.3378
  682SOL    HW2 2046   1.461   1.236   4.293 -1.2952  0.5524  0.0066
  683SOL     OW 2047   4.343   2.807   0.598  0.6642 -0.5426 -0.0793
  683SOL    HW1 2048   4.372   2.846   0.515  1.1991 -1.2212 -0.2159
  683SOL    HW2 2049   4.377   2.718   0.596 -1.6314 -1.4770 -0.3551
  684SOL     OW 2050   0.073   1.945   5.365 -0.2392  0.1466 -0.3882
  684SOL    HW1 2051   0.162   1.979   5.353  0.2245 -0.3055  1.4619
  684SOL    HW2 2052   0.079   1.854   5.336 -0.1155  0.1465 -0.3657
  685SOL     OW 2053   1.934   2.343   5.205 -0.0167 -0.3060  0.2854
  685SOL    HW1 2054   1.988   2.337   5.283  0.1584  1.1074  0.3071
  685SOL    HW2 2055   1.990   2.312   5.134  1.2240  2.0094  0.1579
  686SOL     OW 2056   5.547   0.287   5.961  0.5141  0.2327 -0.3642
  686SOL    HW1 2057   5.569   0.225   6.031  0.9676 -0.6074 -1.2352
  686SOL    HW2 2058   5.631   0.326   5.937  0.1093  1.9150  0.8232
  687SOL     OW 2059   0.654   2.199   1.523 -0.0290  0.3190 -0.1268
  687SOL    HW1 2060   0.617   2.232   1.441 -0.8042 -2.4910 -1.0070
  687SOL    HW2 2061   0.748   2.195   1.507 -0.2334 -0.8608 -1.1801
  688SOL     OW 2062   1.710   2.153   5.170 -0.4266  0.3982 -0.3551
  688SOL    HW1 2063   1.759   2.235   5.164  0.1000  0.0676 -0.6112
  688SOL    HW2 2064   1.771   2.086   5.139 -1.0312 -0.0192 -0.6625
  689SOL     OW 2065   1.590   0.453   5.266  0.2962 -0.0199  0.4966
  689SOL    HW1 2066   1.633   0.389   5.322  2.1771  0.7968  0.0416
  689SOL    HW2 2067   1.582   0.411   5.181 -0.9423 -0.6032  0.8746
  690SOL     OW 2068   1.300   5.469   0.641 -0.2333  0.0534  0.4911
  690SOL    HW1 2069   1.314   5.513   0.557 -1.4776  3.2802  1.8071
  690SOL    HW2 2070   1.382   5.482   0.688  0.4965 -1.8329 -0.1519
  691SOL     OW 2071   3.374   3.070   4.404  0.0974 -0.3913 -0.8610
  691SOL    HW1 2072   3.302   3.039   4.349  1.0571 -1.5582 -1.4920
  691SOL    HW2 2073   3.410   3.145   4.356 -0.5632  0.0808 -0.6351
  692SOL     OW 2074   0.225   5.712   3.009 -0.4178 -0.3329 -0.2730
  692SOL    HW1 2075   0.281   5.659   2.953 -1.0603  0.5792 -1.8253
  692SOL    HW2 2076   0.249   5.802   2.989 -0.4775  0.0311  1.1418
  693SOL     OW 2077   5.902   3.429   2.515  0.4544 -0.3563 -0.0375
  693SOL    HW1 2078   5.974   3.372   2.545  1.9009  0.8705 -1.0017
  693SOL    HW2 2079   5.876   3.477   2.593  1.4990  0.0123  0.1018
  694SOL     OW 2080   3.994   1.114   0.598 -0.3336  0.4068 -0.3384
  694SOL    HW1 2081   3.905   1.124   0.632  0.3382  0.4728  1.5105
  694SOL    HW2 2082   3.991   1.152   0.510 -2.0315  0.7501 -0.1547
  695SOL     OW 2083   3.556   5.406   1.699 -0.3546  0.2489  0.2060
  695SOL    HW1 2084   3.465   5.402   1.669 -0.5583  1.6139  0.5425
  695SOL    HW2 2085   3.598   5.329   1.660 -1.5697 -0.2283 -0.2179
  696SOL     OW 2086   0.931   4.534   0.439  0.3307 -0.3849  0.0118
  696SOL    HW1 2087   0.963   4.552   0.528  0.7001 -0.5057 -0.0949
  696SOL    HW2 2088   0.845   4.574   0.436  0.3529 -0.3039  0.4001
  697SOL     OW 2089   0.994   3.433   0.114  0.2923 -0.0197 -0.4327
  697SOL    HW1 2090   0.997   3.338   0.104 -0.5113 -0.2676  1.3964
  697SOL    HW2 2091   1.081   3.462   0.087 -0.1478 -0.9677 -3.2830
  698SOL     OW 2092   0.042   0.790   5.818 -0.6204 -0.2774  0.2330
  698SOL    HW1 2093   0.098   0.792   5.895  0.2253 -0.7773 -0.3623
  698SOL    HW2 2094   0.072   0.715   5.767 -0.4588  0.6648 -1.1154
  699SOL     OW 2095   2.325   0.885   1.877 -0.1992 -0.3843 -0.5630
  699SOL    HW1 2096   2.335   0.980   1.877  1.4734 -0.5153  0.1878
  699SOL    HW2 2097   2.371   0.856   1.798  0.2289 -0.6363 -0.2246
  700SOL     OW 2098   0.055   1.870   0.306  0.0528  0.2011  0.5949
  700SOL    HW1 2099   0.053   1.802   0.239 -1.9828 -0.8367  1.6053
  700SOL    HW2 2100  -0.037   1.889   0.323  0.5612  2.6570  0.9432
  701SOL     OW 2101   5.006   5.390   1.946  0.1747 -0.2257 -0.1205
  701SOL    HW1 2102   4.932   5.433   1.990 -0.0368  1.4875 -2.0309
  701SOL    HW2 2103   4.995   5.297   1.967 -1.2180  0.2523  1.4945
  702SOL     OW 2104   1.272   3.908   2.909 -0.4508  0.1279 -0.4157
  702SOL    HW1 2105   1.183   3.929   2.881 -0.2218  1.4589 -0.2343
  702SOL    HW2 2106   1.263   3.830   2.963 -1.4096 -0.1773 -0.9961
  703SOL     OW 2107   1.966   0.307   0.694 -0.7790 -0.1749  0.6200
  703SOL    HW1 2108   1.949   0.358   0.615  1.0420  0.0484  0.3252
  703SOL    HW2 2109   1.934   0.362   0.765 -2.2215 -0.2757  0.0838
  704SOL     OW 2110   0.461   2.928   2.947  0.2962  0.1015 -0.2698
  704SOL    HW1 2111   0.469   3.010   2.996  0.1535  0.6602 -1.1486
  704SOL    HW2 2112   0.500   2.948   2.861 -1.0618 -0.3008 -1.0012
  705SOL     OW 2113   0.685   0.881   3.440 -0.6372 -0.4550 -0.2657
  705SOL    HW1 2114   0.744   0.954   3.424  1.2403 -2.0525 -0.9862
  705SOL    HW2 2115   0.600   0.911   3.407 -0.0902  1.6079  0.0757
  706SOL     OW 2116   3.247   2.317   1.754  0.2272 -0.4100 -0.1368
  706SOL    HW1 2117   3.168   2.328   1.807  0.7839  1.2283  0.4188
  706SOL    HW2 2118   3.245   2.391   1.693  1.3621 -0.3168 -0.0754
  707SOL     OW 2119   2.689   2.071   5.452 -0.4677 -0.6272 -0.1203
  707SOL    HW1 2120   2.766   2.038   5.407  0.8374  2.8800 -0.7297
  707SOL    HW2 2121   2.707   2.056   5.545 -0.2008 -1.9615 -0.3650
  708SOL     OW 2122   1.527   3.903   4.626  0.0897 -0.1161  0.4025
  708SOL    HW1 2123   1.451   3.937   4.674 -0.0961 -0.0757  0.0796
  708SOL    HW2 2124   1.495   3.887   4.538 -0.6667 -3.9314  1.1887
  709SOL     OW 2125   3.101   2.659   5.228 -0.4947  0.2724 -0.2538
  709SOL    HW1 2126   3.100   2.575   5.183  1.7912  0.8940 -1.6179
  709SOL    HW2 2127   3.086   2.636   5.320  0.1503 -1.6496 -0.5733
  710SOL     OW 2128   2.298   2.275   3.455  0.3091  0.4488  0.2787
  710SOL    HW1 2129   2.288   2.186   3.420 -3.2590 -0.2504  2.4819
  710SOL    HW2 2130   2.284   2.333   3.380 -2.7792 -0.9556 -0.3926
  711SOL     OW 2131   2.661   2.024   2.870  0.5097 -0.6024 -0.1374
  711SOL    HW1 2132   2.598   1.956   2.845 -1.4549  0.7175  0.9760
  711SOL    HW2 2133   2.614   2.079   2.933  2.1064  1.6441 -0.7775
  712SOL     OW 2134   0.370   3.925   0.930 -0.7252  0.7034 -0.1430
  712SOL    HW1 2135   0.431   3.982   0.978 -0.7436  0.7780 -0.2074
  712SOL    HW2 2136   0.295   3.915   0.989 -0.6385  0.5891 -0.0522
  713SOL     OW 2137   4.906   3.326   0.642 -0.2068  0.2687 -0.4317
  713SOL    HW1 2138   4.983   3.325   0.700  0.6449  1.4295 -1.4909
  713SOL    HW2 2139   4.838   3.282   0.693  1.1705 -0.8895  0.5078
  714SOL     OW 2140   1.505   2.868   5.407 -0.4651  0.1832  0.5939
  714SOL    HW1 2141   1.530   2.779   5.379 -0.5303  0.9254 -2.0822
  714SOL    HW2 2142   1.422   2.856   5.453 -0.9430 -1.0781 -0.5259
  715SOL     OW 2143   1.844   0.346   5.583  0.1164 -0.3566 -0.7164
  715SOL    HW1 2144   1.846   0.269   5.639  0.3431 -0.6472 -1.1180
  715SOL    HW2 2145   1.791   0.320   5.508 -0.7397  0.2424 -0.3463
  716SOL     OW 2146   0.685   2.370   4.240  0.4976  0.5013  0.0728
  716SOL    HW1 2147   0.691   2.348   4.147 -1.1047 -1.1786  0.2965
  716SOL    HW2 2148   0.634   2.451   4.241  1.1509  0.9382 -0.5234
  717SOL     OW 2149   4.713   4.499   4.469  0.1985  0.0329  0.0291
  717SOL    HW1 2150   4.685   4.415   4.506  1.7771 -0.8574 -0.7433
  717SOL    HW2 2151   4.639   4.558   4.487 -0.4247 -1.1742  1.7054
  718SOL     OW 2152   0.972   3.124   2.050  0.6091  0.4792  0.3076
  718SOL    HW1 2153   0.946   3.041   2.091  1.3366  1.1240  2.1969
  718SOL    HW2 2154   1.022   3.169   2.118  1.6959  1.7435 -1.2721
  719SOL     OW 2155   0.833   5.215   2.249  0.0556  0.3487 -0.1506
  719SOL    HW1 2156   0.876   5.132   2.228 -0.3603 -0.6733  2.5236
  719SOL    HW2 2157   0.899   5.281   2.233  0.6381 -0.5593 -1.6910
  720SOL     OW 2158   0.153   2.878   0.197 -0.2408 -0.1637  0.2156
  720SOL    HW1 2159   0.133   2.965   0.230 -1.0773 -0.3761  0.2872
  720SOL    HW2 2160   0.247   2.880   0.179 -0.0906  0.4666  1.0470
  721SOL     OW 2161   5.298   4.990   0.978 -0.1068 -0.3120 -0.2473
  721SOL    HW1 2162   5.365   4.998   1.046  2.3257  0.2737 -2.5690
  721SOL    HW2 2163   5.260   4.904   0.993  2.0681 -1.2416  0.4149
  722SOL     OW 2164   2.976   4.960   1.012  0.3130 -0.1736 -0.1999
  722SOL    HW1 2165   2.998   4.987   0.922 -0.5013 -2.5796 -1.1998
  722SOL    HW2 2166   3.044   4.896   1.035  0.0828 -0.1291  0.6142
  723SOL     OW 2167   2.907   0.821   5.569  0.2960  0.1533 -0.0432
  723SOL    HW1 2168   2.958   0.877   5.510  1.3644 -1.8594 -1.1380
  723SOL    HW2 2169   2.825   0.869   5.582  0.4180  1.1449 -2.3806
  724SOL     OW 2170   3.536   2.453   4.123  0.2567  0.1305 -0.4239
  724SOL    HW1 2171   3.444   2.468   4.145 -0.4722 -0.9091 -2.4802
  724SOL    HW2 2172   3.561   2.377   4.177 -0.1157  0.3631  0.0823
  725SOL     OW 2173   5.877   0.441   5.085  0.5638  0.0685  0.4523
  725SOL    HW1 2174   5.820   0.364   5.086  1.2478 -0.5029 -1.1487
  725SOL    HW2 2175   5.960   0.408   5.050  0.9956  1.4636  0.1275
  726SOL     OW 2176   1.249   3.011   1.875  0.3300 -0.0322 -0.1193
  726SOL    HW1 2177   1.246   3.014   1.971  0.3167  0.2685 -0.1287
  726SOL    HW2 2178   1.167   3.052   1.847  0.2532 -0.2791 -0.2568
  727SOL     OW 2179   2.568   1.321   2.766  0.3182  0.1293  0.4408
  727SOL    HW1 2180   2.658   1.298   2.789  0.9040  0.4784 -1.3413
  727SOL    HW2 2181   2.576   1.398   2.710 -1.0159 -0.2895 -0.3960
  728SOL     OW 2182   0.916   3.370   0.853  0.3254 -0.5333 -0.1973
  728SOL    HW1 2183   0.879   3.413   0.929  0.7477 -1.5793  0.6302
  728SOL    HW2 2184   0.872   3.410   0.778 -0.2585  0.3502  0.6026
  729SOL     OW 2185   5.653   3.281   4.653  0.0741  0.1316  0.4866
  729SOL    HW1 2186   5.709   3.205   4.668  1.5260  1.2344  0.8159
  729SOL    HW2 2187   5.629   3.311   4.741 -1.9571 -0.9390  0.3597
  730SOL     OW 2188   0.368   5.094   5.530 -0.3961 -0.3496  0.0494
  730SOL    HW1 2189   0.273   5.107   5.535 -0.7040 -0.5188 -3.2245
  730SOL    HW2 2190   0.399   5.164   5.473  1.1140 -1.5674 -0.7049
  731SOL     OW 2191   5.472   2.494   1.680 -0.3199 -0.0697 -0.2580
  731SOL    HW1 2192   5.463   2.413   1.631  0.2271 -0.6457  0.5615
  731SOL    HW2 2193   5.547   2.538   1.640  0.3412 -0.6971  0.2518
  732SOL     OW 2194   1.147   3.396   1.130 -0.1454 -0.1470  0.3283
  732SOL    HW1 2195   1.074   3.369   1.186  1.0096 -1.9289  1.0886
  732SOL    HW2 2196   1.213   3.429   1.191 -0.5428  2.1916 -0.4086
  733SOL     OW 2197   1.781   1.896   0.601  0.3734  0.5210 -0.2465
  733SOL    HW1 2198   1.697   1.897   0.647  1.0577  0.3108  1.0304
  733SOL    HW2 2199   1.844   1.869   0.666  1.3730  0.1547 -1.3348
  734SOL     OW 2200   0.208   1.693   1.490  0.4923  0.0244  0.2671
  734SOL    HW1 2201   0.279   1.708   1.428  0.6517  0.7010  0.5933
  734SOL    HW2 2202   0.244   1.721   1.574  0.2441 -0.7721  0.6470
  735SOL     OW 2203   4.520   0.647   0.064 -0.7848  0.0094  0.3129
  735SOL    HW1 2204   4.507   0.627   0.156 -1.8401 -2.5598 -0.3083
  735SOL    HW2 2205   4.475   0.577   0.017 -0.9905  1.6534 -2.1867
  736SOL     OW 2206   4.303   3.197   5.530 -0.2072 -0.2982  0.8702
  736SOL    HW1 2207   4.287   3.129   5.464 -0.4133 -0.3608  0.9828
  736SOL    HW2 2208   4.302   3.279   5.481 -0.7040 -0.3142  0.8437
  737SOL     OW 2209   3.905   2.643   5.675 -0.2099  0.0220 -0.3315
  737SOL    HW1 2210   3.943   2.567   5.719 -1.2472 -0.7418 -0.7337
  737SOL    HW2 2211   3.976   2.677   5.620  0.3311 -0.5147  0.0238
  738SOL     OW 2212   5.912   2.420   2.960  0.1723 -0.3543  0.1356
  738SOL    HW1 2213   6.004   2.442   2.978 -0.1374  0.5122  0.7173
  738SOL    HW2 2214   5.915   2.371   2.878  1.1017  0.1100 -0.1287
  739SOL     OW 2215   0.086   3.586   3.761  0.0163 -0.2425  0.2923
  739SOL    HW1 2216   0.115   3.675   3.743 -0.7562  0.0740  0.5788
  739SOL    HW2 2217   0.005   3.577   3.712  2.0387 -2.1605 -3.0774
  740SOL     OW 2218   0.243   2.323   5.121  0.0156 -0.0450  0.0567
  740SOL    HW1 2219   0.228   2.240   5.075 -0.8195  0.1084  0.0511
  740SOL    HW2 2220   0.195   2.388   5.069  0.6781  0.4508  0.0520
  741SOL     OW 2221   2.527   1.078   2.047 -0.1684 -0.1218  0.1101
  741SOL    HW1 2222   2.517   1.099   1.955 -1.4413  0.0754  0.2794
  741SOL    HW2 2223   2.518   0.983   2.051  1.5568 -0.3335 -0.1498
  742SOL     OW 2224   4.152   2.719   5.568 -0.0089  0.1004  0.3295
  742SOL    HW1 2225   4.237   2.758   5.586 -0.8862  2.2611  0.1262
  742SOL    HW2 2226   4.155   2.695   5.476  0.6983 -0.7064  0.5618
  743SOL     OW 2227   2.877   4.559   4.865  0.1587  0.3615 -0.0378
  743SOL    HW1 2228   2.921   4.478   4.892  1.0066  0.7627 -0.1966
  743SOL    HW2 2229   2.860   4.606   4.946 -0.4796 -0.0320  0.0701
  744SOL     OW 2230   3.275   5.561   0.311  0.2548  0.2331 -0.4997
  744SOL    HW1 2231   3.299   5.635   0.256  0.9052 -0.2712 -0.9118
  744SOL    HW2 2232   3.259   5.489   0.250 -1.1431  0.2173 -0.1584
  745SOL     OW 2233   2.909   3.796   0.991  0.2576  0.2314  0.1588
  745SOL    HW1 2234   2.932   3.712   1.032 -0.1910 -0.2635 -0.5601
  745SOL    HW2 2235   2.972   3.858   1.026  0.8161 -0.4810  0.4525
  746SOL     OW 2236   2.576   3.161   1.703 -0.7161 -0.3710  0.1889
  746SOL    HW1 2237   2.573   3.252   1.672 -0.7953 -0.3508  0.2536
  746SOL    HW2 2238   2.500   3.119   1.663 -0.2079 -0.6313 -0.5182
  747SOL     OW 2239   1.239   3.456   0.013 -0.7388 -0.0904 -0.1477
  747SOL    HW1 2240   1.267   3.365   0.017 -1.0658 -0.1651  0.7371
  747SOL    HW2 2241   1.316   3.506   0.040  0.4895  0.1759 -3.5681
  748SOL     OW 2242   1.183   1.181   5.091  0.8328  0.0334 -0.2535
  748SOL    HW1 2243   1.212   1.098   5.054  1.2627  0.6007 -1.2526
  748SOL    HW2 2244   1.168   1.163   5.184  0.4344 -1.2687 -0.5465
  749SOL     OW 2245   4.471   5.239   1.842  0.0267  0.1881  0.6099
  749SOL    HW1 2246   4.469   5.312   1.781 -0.2477  1.7211  2.3402
  749SOL    HW2 2247   4.564   5.223   1.857  0.0872  0.5742  0.6515
  750SOL     OW 2248   3.598   3.364   4.565  0.0894 -0.3646 -0.5467
  750SOL    HW1 2249   3.603   3.435   4.629 -0.3232  0.0470 -0.9619
  750SOL    HW2 2250   3.687   3.353   4.535 -0.0854  1.1808 -1.7604
  751SOL     OW 2251   2.975   2.683   1.494 -0.2530 -1.0818 -0.3610
  751SOL    HW1 2252   3.004   2.717   1.579 -2.1897  0.2218 -0.1662
  751SOL    HW2 2253   2.911   2.615   1.516 -2.1255  0.4866 -0.6976
  752SOL     OW 2254   0.726   3.668   1.399 -0.3801  0.2052 -0.5705
  752SOL    HW1 2255   0.736   3.761   1.376  1.3108 -0.2608 -1.9654
  752SOL    HW2 2256   0.794   3.624   1.348 -1.1636 -1.8162  0.0513
  753SOL     OW 2257   5.640   1.910   2.239 -0.1583  0.1601 -0.4637
  753SOL    HW1 2258   5.563   1.909   2.182  0.4335 -0.3775 -1.2690
  753SOL    HW2 2259   5.670   2.001   2.237  0.9132 -0.1838 -2.4842
  754SOL     OW 2260   5.246   4.097   3.063 -0.4367 -0.2437 -0.4266
  754SOL    HW1 2261   5.288   4.023   3.107 -0.9987  0.5021  1.4427
  754SOL    HW2 2262   5.173   4.121   3.120 -0.4510  1.5662 -1.1489
  755SOL     OW 2263   2.250   1.887   2.197 -0.0964  0.1749  0.5379
  755SOL    HW1 2264   2.190   1.826   2.155  0.3866 -2.3855  3.2431
  755SOL    HW2 2265   2.321   1.832   2.231  0.9890  2.3965  2.1380
  756SOL     OW 2266   0.081   5.127   5.550 -0.3017  0.5630  0.3705
  756SOL    HW1 2267   0.056   5.076   5.472  0.0177  1.1407 -0.1191
  756SOL    HW2 2268   0.008   5.116   5.611 -0.7492  0.4477 -0.1813
  757SOL     OW 2269   2.753   4.456   1.608  0.1802  0.1138  0.2722
  757SOL    HW1 2270   2.713   4.534   1.568 -0.4359  0.4658  1.5238
  757SOL    HW2 2271   2.680   4.413   1.653  0.2199 -1.9571 -1.5076
  758SOL     OW 2272   5.324   2.015   4.336  0.3979 -0.0300  0.0233
  758SOL    HW1 2273   5.402   2.070   4.346  0.9887 -0.7925 -0.3382
  758SOL    HW2 2274   5.296   2.029   4.246 -0.8210  1.4377  0.5800
  759SOL     OW 2275   2.683   2.076   5.717 -0.4628  0.1728  0.2440
  759SOL    HW1 2276   2.678   2.064   5.812  0.1534  0.6280  0.3357
  759SOL    HW2 2277   2.680   2.171   5.705  0.8891  0.1882 -0.1047
  760SOL     OW 2278   1.267   2.579   4.925 -0.5620  0.2141  0.1324
  760SOL    HW1 2279   1.308   2.501   4.888 -0.1428 -0.2520  1.5354
  760SOL    HW2 2280   1.326   2.651   4.901 -0.9752  0.1300 -1.2059
  761SOL     OW 2281   0.342   4.101   1.615  0.9810 -0.7637  0.6256
  761SOL    HW1 2282   0.379   4.179   1.656  2.2854 -1.9022  1.6880
  761SOL    HW2 2283   0.383   4.098   1.528  0.2646  0.1858  0.2454
  762SOL     OW 2284   0.141   3.890   2.819  0.2616 -0.0712 -0.2495
  762SOL    HW1 2285   0.074   3.823   2.833  0.2599  0.0036  0.1322
  762SOL    HW2 2286   0.107   3.944   2.749 -0.6606  0.7019  0.7576
  763SOL     OW 2287   1.279   3.145   2.717  0.2382  0.4293  0.2174
  763SOL    HW1 2288   1.348   3.155   2.652 -0.2629 -1.6778 -0.7440
  763SOL    HW2 2289   1.269   3.050   2.727 -2.0569  0.6626  0.8019
  764SOL     OW 2290   1.772   4.682   5.960 -0.1975  0.2670 -0.1443
  764SOL    HW1 2291   1.822   4.603   5.981  0.0237  1.2500  3.9240
  764SOL    HW2 2292   1.834   4.754   5.977 -1.4097  1.3902 -0.3364
  765SOL     OW 2293   3.907   1.410   5.778  0.5671  0.2716 -0.1330
  765SOL    HW1 2294   3.900   1.454   5.863  1.2563  0.5137 -0.1911
  765SOL    HW2 2295   3.993   1.438   5.744  0.0841  0.5836 -1.1291
  766SOL     OW 2296   0.940   4.864   3.207  0.5930 -0.1405  0.6503
  766SOL    HW1 2297   0.975   4.943   3.167 -1.1730  0.1911 -0.3178
  766SOL    HW2 2298   0.934   4.885   3.300 -0.4952  1.1299  0.3083
  767SOL     OW 2299   2.383   2.160   0.001 -0.0631  0.5431 -0.7158
  767SOL    HW1 2300   2.288   2.150  -0.003  0.0345 -2.4172  1.4516
  767SOL    HW2 2301   2.397   2.218   0.076 -0.1496  0.3923 -0.5821
  768SOL     OW 2302   0.252   0.843   1.363  0.2092 -0.1743  0.1353
  768SOL    HW1 2303   0.167   0.843   1.321  0.3084  1.7792 -0.1500
  768SOL    HW2 2304   0.246   0.910   1.431  0.8870 -1.4321  1.5109
  769SOL     OW 2305   2.764   5.878   1.220 -0.8150 -0.6069 -0.1297
  769SOL    HW1 2306   2.747   5.836   1.135 -0.7222  1.3243 -1.1582
  769SOL    HW2 2307   2.678   5.908   1.249 -0.5946  0.3957 -0.4815
  770SOL     OW 2308   1.496   3.980   5.918  0.3398  0.3138 -0.5922
  770SOL    HW1 2309   1.480   3.896   5.961  0.0242  0.1939 -0.9380
  770SOL    HW2 2310   1.415   3.997   5.869  0.6176  0.5461 -0.9696
  771SOL     OW 2311   2.815   2.320   1.095  0.1807  0.2504 -0.2932
  771SOL    HW1 2312   2.793   2.232   1.065  0.5137 -0.2929  0.9925
  771SOL    HW2 2313   2.770   2.329   1.179  1.1512  0.8471  0.1761
  772SOL     OW 2314   2.450   3.093   3.396  0.0376 -0.1651  0.2179
  772SOL    HW1 2315   2.375   3.084   3.338 -0.5242 -0.0399  0.9159
  772SOL    HW2 2316   2.416   3.073   3.483  1.2758 -2.2016  0.3019
  773SOL     OW 2317   2.132   3.979   5.185 -0.0978 -0.0962 -0.3373
  773SOL    HW1 2318   2.104   3.888   5.199 -1.2875  0.4378  1.0066
  773SOL    HW2 2319   2.062   4.017   5.130 -0.3380  0.3763  0.2918
  774SOL     OW 2320   2.184   2.037   3.304 -0.0624 -0.0139 -0.8214
  774SOL    HW1 2321   2.192   2.117   3.252 -0.8186  1.4635  1.2210
  774SOL    HW2 2322   2.102   1.997   3.274 -1.2924  1.6196  0.1887
  775SOL     OW 2323   0.596   3.023   4.785  0.2427  0.3934 -0.7355
  775SOL    HW1 2324   0.600   3.013   4.690 -1.3079 -1.0446 -0.7032
  775SOL    HW2 2325   0.627   2.939   4.819  0.3609  0.7368  0.0331
  776SOL     OW 2326   0.362   2.101   0.795  0.4416  0.3994  0.0378
  776SOL    HW1 2327   0.273   2.133   0.782  0.8220  1.6291  0.3003
  776SOL    HW2 2328   0.408   2.174   0.837  1.4848 -0.3378  0.2267
  777SOL     OW 2329   0.903   2.838   1.350  0.1099  0.0771  0.5853
  777SOL    HW1 2330   0.910   2.777   1.276  1.7906  1.0587 -0.1152
  777SOL    HW2 2331   0.952   2.915   1.322  0.7518  0.5040  2.6999
  778SOL     OW 2332   5.679   3.150   4.099 -0.0194  0.2123  0.4206
  778SOL    HW1 2333   5.702   3.186   4.185 -2.1917  0.5479  0.9114
  778SOL    HW2 2334   5.752   3.176   4.042  1.2914  0.2907  2.0506
  779SOL     OW 2335   0.917   2.168   1.876 -0.1303 -0.2556  0.0517
  779SOL    HW1 2336   0.959   2.253   1.890 -1.0161  0.3266 -0.6984
  779SOL    HW2 2337   0.987   2.104   1.888  0.2983  0.4860  1.8216
  780SOL     OW 2338   4.247   3.939   5.446  0.0118  0.4246 -0.0849
  780SOL    HW1 2339   4.312   4.006   5.424 -0.2842  1.0949  0.9661
  780SOL    HW2 2340   4.283   3.896   5.524  0.5778 -1.2208 -1.1967
  781SOL     OW 2341   5.473   3.182   5.147  0.3706 -0.0396 -0.8919
  781SOL    HW1 2342   5.453   3.275   5.133  1.2592  0.4158  0.5920
  781SOL    HW2 2343   5.390   3.143   5.174  0.3183  0.6905  0.0542
  782SOL     OW 2344   5.716   4.103   2.653 -0.2000  0.4072  0.1769
  782SOL    HW1 2345   5.652   4.174   2.664 -0.8335 -0.2952  1.1932
  782SOL    HW2 2346   5.665   4.031   2.617  0.0589 -0.1016  0.8258
  783SOL     OW 2347   4.136   5.704   1.380 -0.5365 -0.0036  0.3530
  783SOL    HW1 2348   4.125   5.781   1.436 -1.1923  0.9478 -1.0136
  783SOL    HW2 2349   4.225   5.712   1.345 -0.2934 -0.3469  0.8843
  784SOL     OW 2350   5.337   3.618   0.145  0.3078  0.0852 -0.0634
  784SOL    HW1 2351   5.428   3.604   0.119 -0.0085 -1.8858 -0.2300
  784SOL    HW2 2352   5.329   3.713   0.154  2.9159  0.2205  1.9762
  785SOL     OW 2353   3.841   3.639   0.278 -0.0646 -0.3366 -0.0828
  785SOL    HW1 2354   3.753   3.676   0.266  0.2324 -0.2413 -2.5992
  785SOL    HW2 2355   3.889   3.669   0.201  1.8902 -1.2410  0.7359
  786SOL     OW 2356   0.003   1.682   0.936 -0.3006 -0.2445  0.1216
  786SOL    HW1 2357  -0.008   1.600   0.984 -2.1222 -1.0235 -1.4571
  786SOL    HW2 2358   0.044   1.656   0.853  0.3014  0.6456  0.1255
  787SOL     OW 2359   5.491   5.739   2.106  0.1774 -0.2182 -0.5579
  787SOL    HW1 2360   5.473   5.686   2.028  2.4220 -1.7490 -0.1243
  787SOL    HW2 2361   5.582   5.720   2.127  0.4174  2.2098  0.9205
  788SOL     OW 2362   1.032   0.518   1.013  0.5482  0.2454 -0.2172
  788SOL    HW1 2363   1.117   0.528   0.970  0.3887  1.4746 -0.2954
  788SOL    HW2 2364   1.050   0.526   1.106  0.5351  0.4586 -0.2313
  789SOL     OW 2365   0.772   4.346   0.727 -0.1298 -0.0862  0.5636
  789SOL    HW1 2366   0.855   4.315   0.690 -1.2839 -1.7115 -0.8577
  789SOL    HW2 2367   0.720   4.373   0.651 -1.5870 -0.9310  1.2085
  790SOL     OW 2368   3.112   2.416   3.101  0.1194 -0.0842  0.2085
  790SOL    HW1 2369   3.198   2.411   3.143  0.2768 -0.2301 -0.1324
  790SOL    HW2 2370   3.053   2.371   3.162  0.3460 -0.2861  0.2795
  791SOL     OW 2371   0.753   3.722   4.314 -0.1009 -0.6422 -0.4611
  791SOL    HW1 2372   0.754   3.818   4.324 -1.6918 -0.7407  1.0031
  791SOL    HW2 2373   0.661   3.700   4.302 -0.0977 -2.2025  1.8265
  792SOL     OW 2374   1.389   0.949   5.584  0.0041 -0.2232  0.4208
  792SOL    HW1 2375   1.367   1.042   5.594 -3.2242 -0.7675 -0.4072
  792SOL    HW2 2376   1.420   0.922   5.670 -0.7822  1.2139  1.1860
  793SOL     OW 2377   4.431   2.834   1.716  0.3088  0.1065  0.0374
  793SOL    HW1 2378   4.360   2.854   1.776  1.3061  1.0285  0.9637
  793SOL    HW2 2379   4.388   2.822   1.631 -1.1863 -1.7598  0.9834
  794SOL     OW 2380   0.937   2.163   0.124 -0.3535  0.7694  0.0506
  794SOL    HW1 2381   0.894   2.191   0.043 -0.4776  1.0143  0.1953
  794SOL    HW2 2382   0.966   2.074   0.107  0.4059  1.1216 -0.5662
  795SOL     OW 2383   2.244   2.055   5.381  0.0095 -0.0986  0.4202
  795SOL    HW1 2384   2.157   2.027   5.409 -0.8966  1.2334 -0.9159
  795SOL    HW2 2385   2.304   1.999   5.430 -1.5067  0.4539  3.1018
  796SOL     OW 2386   3.195   4.329   0.788 -0.1611 -0.3475  0.1630
  796SOL    HW1 2387   3.121   4.353   0.732  1.1848  0.0438 -1.5117
  796SOL    HW2 2388   3.272   4.357   0.739  1.0746  0.3984  2.4115
  797SOL     OW 2389   5.794   0.810   5.374 -0.0133 -0.6018  0.0464
  797SOL    HW1 2390   5.797   0.901   5.401 -1.2630 -0.6412  0.4111
  797SOL    HW2 2391   5.861   0.767   5.427  0.3138  0.0317  0.1563
  798SOL     OW 2392   1.501   3.975   1.104  0.1662 -0.6794  0.3728
  798SOL    HW1 2393   1.484   4.047   1.165  1.4594 -0.6023  0.6708
  798SOL    HW2 2394   1.440   3.990   1.032 -0.6001 -0.1264  1.1118
  799SOL     OW 2395   2.200   0.170   1.055  0.0246  0.4081  0.3822
  799SOL    HW1 2396   2.238   0.210   0.977  0.9141 -0.9618  0.0800
  799SOL    HW2 2397   2.107   0.161   1.035  0.1058  0.8114 -0.1953
  800SOL     OW 2398   1.441   2.678   0.889 -0.4510 -0.3476 -0.0728
  800SOL    HW1 2399   1.535   2.698   0.889 -0.8608  2.0373 -1.9923
  800SOL    HW2 2400   1.410   2.709   0.974  0.5458 -1.6266  0.7911
  801SOL     OW 2401   2.115   0.637   1.360 -0.6712 -0.8370  0.5976
  801SOL    HW1 2402   2.191   0.678   1.400  0.8649 -2.5673 -0.3579
  801SOL    HW2 2403   2.059   0.710   1.333  1.3152  0.5716  0.0781
  802SOL     OW 2404   4.593   3.051   2.508  0.2749 -0.1931  0.1276
  802SOL    HW1 2405   4.587   3.136   2.463 -2.5787 -0.1370  0.4527
  802SOL    HW2 2406   4.530   2.995   2.464  0.3063 -1.3891  1.5220
  803SOL     OW 2407   4.383   2.430   2.746  0.3631  0.3457 -0.1783
  803SOL    HW1 2408   4.469   2.465   2.769 -0.1892  1.4590  0.2654
  803SOL    HW2 2409   4.360   2.373   2.819  1.5578 -1.5660 -1.2105
  804SOL     OW 2410   0.170   4.160   0.882 -0.2545  0.0624  0.1525
  804SOL    HW1 2411   0.209   4.198   0.803  0.3037  1.1790  0.9262
  804SOL    HW2 2412   0.243   4.115   0.926 -0.2106  0.6938  0.7467
  805SOL     OW 2413   0.699   1.626   1.141 -0.5221  0.2052  0.1827
  805SOL    HW1 2414   0.696   1.547   1.195  0.1607  0.8432  1.1880
  805SOL    HW2 2415   0.666   1.598   1.055 -0.9950 -0.9849  0.7314
  806SOL     OW 2416   1.917   4.453   5.442 -0.0013  0.3535 -0.6920
  806SOL    HW1 2417   1.844   4.512   5.425  0.7785  1.4837 -0.2494
  806SOL    HW2 2418   1.995   4.509   5.441  1.2601 -1.1923 -3.8707
  807SOL     OW 2419   1.318   4.103   2.262  0.2370 -0.3008 -0.0637
  807SOL    HW1 2420   1.272   4.022   2.240 -1.0506  0.6652 -1.1209
  807SOL    HW2 2421   1.325   4.150   2.178  1.2763  0.5128  0.4589
  808SOL     OW 2422   3.393   4.313   0.192 -0.0286  0.3067  0.1876
  808SOL    HW1 2423   3.422   4.404   0.193  0.0492  0.2842  0.0761
  808SOL    HW2 2424   3.455   4.269   0.134 -0.4786  0.3253 -0.3254
  809SOL     OW 2425   1.158   3.525   1.450 -0.0066 -0.4343  0.3178
  809SOL    HW1 2426   1.148   3.509   1.544  1.0588  1.7807  0.8703
  809SOL    HW2 2427   1.245   3.490   1.429 -0.3911 -1.2595  0.0397
  810SOL     OW 2428   0.383   0.395   1.193 -0.5901  0.0256  0.2635
  810SOL    HW1 2429   0.417   0.306   1.198  1.2389  0.6839  0.4673
  810SOL    HW2 2430   0.331   0.406   1.272 -0.3706 -0.6834  0.5145
  811SOL     OW 2431   4.743   1.696   5.818  0.1956  0.1880  0.0034
  811SOL    HW1 2432   4.782   1.782   5.835  0.6525 -0.3473  1.8847
  811SOL    HW2 2433   4.652   1.716   5.795  0.9908  1.3231 -2.5819
  812SOL     OW 2434   0.643   2.174   5.066  0.0434  0.2855  0.2251
  812SOL    HW1 2435   0.566   2.182   5.009 -0.3927  4.0529  1.0340
  812SOL    HW2 2436   0.717   2.180   5.007 -0.2060 -2.2299 -0.4486
  813SOL     OW 2437   3.655   0.027   3.996 -0.2184 -0.2966 -0.2623
  813SOL    HW1 2438   3.592   0.011   3.925  0.3654  0.3808 -0.9420
  813SOL    HW2 2439   3.600   0.051   4.070 -0.7487  3.2311 -1.5925
  814SOL     OW 2440   5.456   2.786   2.013 -0.2941  0.1282  0.0668
  814SOL    HW1 2441   5.480   2.878   2.019  1.0981 -0.2665  1.4533
  814SOL    HW2 2442   5.525   2.740   2.062 -0.3082 -1.7700 -1.5461
  815SOL     OW 2443   5.944   4.819   3.115 -0.3039 -0.6143  0.2767
  815SOL    HW1 2444   5.992   4.741   3.089 -0.6056 -1.4050  1.9978
  815SOL    HW2 2445   5.890   4.791   3.189 -0.0871  1.3236  1.2185
  816SOL     OW 2446   1.312   3.096   2.191 -0.0388  0.1398 -0.2746
  816SOL    HW1 2447   1.253   3.171   2.201  1.6302  1.2810  2.2238
  816SOL    HW2 2448   1.255   3.020   2.190 -1.6634  1.3037 -0.1916
  817SOL     OW 2449   0.348   3.048   0.580 -0.1805  0.7376 -0.3106
  817SOL    HW1 2450   0.324   3.045   0.488  2.9213 -1.7793 -1.1977
  817SOL    HW2 2451   0.438   3.081   0.581 -0.4710  1.6697  1.9562
  818SOL     OW 2452   5.694   0.203   0.188 -0.2230 -0.1787 -0.0084
  818SOL    HW1 2453   5.710   0.134   0.252  0.1498 -0.4613 -0.4038
  818SOL    HW2 2454   5.661   0.277   0.240 -0.9959 -0.7717  0.3723
  819SOL     OW 2455   3.817   2.722   1.356 -0.1464 -0.4469  0.2681
  819SOL    HW1 2456   3.775   2.772   1.426  1.2209 -0.6918  1.3067
  819SOL    HW2 2457   3.747   2.669   1.319 -1.2935  1.0759  0.1845
  820SOL     OW 2458   1.214   0.599   0.058  0.0178 -0.0927  0.1158
  820SOL    HW1 2459   1.162   0.602   0.138  1.6280 -1.7451  1.3035
  820SOL    HW2 2460   1.297   0.641   0.082  0.5556 -0.6881 -0.6412
  821SOL     OW 2461   5.935   4.068   4.956  0.3811 -0.2296 -0.0737
  821SOL    HW1 2462   5.976   4.004   5.015 -1.7010  0.0514  1.8327
  821SOL    HW2 2463   5.904   4.137   5.015 -1.5553  0.2255 -1.5560
  822SOL     OW 2464   0.087   1.932   1.296 -0.2232  0.4695 -0.2324
  822SOL    HW1 2465   0.092   1.977   1.211  1.6420  0.0047 -0.4186
  822SOL    HW2 2466   0.122   1.845   1.278  1.4793  0.7909  1.2636
  823SOL     OW 2467   1.572   3.592   5.498  0.6657 -0.6799  0.5572
  823SOL    HW1 2468   1.566   3.676   5.544 -1.4155 -0.2355 -0.3784
  823SOL    HW2 2469   1.585   3.616   5.406 -0.5600 -1.3215  0.1921
  824SOL     OW 2470   1.769   5.538   5.437  0.0920  0.1447  0.3147
  824SOL    HW1 2471   1.824   5.602   5.392 -0.7594 -0.3650 -1.5483
  824SOL    HW2 2472   1.679   5.565   5.417 -0.3000 -0.5146  1.1344
  825SOL     OW 2473   1.106   2.067   4.500  0.4327 -0.5464 -0.2003
  825SOL    HW1 2474   1.076   1.989   4.546 -2.3969 -1.0485 -2.5431
  825SOL    HW2 2475   1.036   2.131   4.516  1.5394  0.7078 -0.2609
  826SOL     OW 2476   0.609   4.665   2.363  0.1879  0.2511  0.1170
  826SOL    HW1 2477   0.640   4.751   2.337  0.4505  0.4880  1.1660
  826SOL    HW2 2478   0.655   4.604   2.305  1.0042  0.7365  0.2476
  827SOL     OW 2479   0.147   2.642   1.989  0.5543  0.1784  0.1199
  827SOL    HW1 2480   0.127   2.620   1.898  0.2120  2.5621 -0.4476
  827SOL    HW2 2481   0.211   2.714   1.983 -0.4914  1.3085  1.6846
  828SOL     OW 2482   4.268   5.898   1.075 -0.5679 -0.0964  0.1183
  828SOL    HW1 2483   4.333   5.871   1.139 -0.4175  0.8366  0.3829
  828SOL    HW2 2484   4.222   5.818   1.051  1.5792 -1.0058 -1.1325
  829SOL     OW 2485   4.926   4.773   4.751  0.2115 -0.1561  0.4238
  829SOL    HW1 2486   4.880   4.771   4.835  0.4576 -1.0138  0.5541
  829SOL    HW2 2487   4.997   4.709   4.761  0.8018  0.4015 -0.1239
  830SOL     OW 2488   2.378   4.013   1.626  0.3856 -0.0440  0.2797
  830SOL    HW1 2489   2.395   3.930   1.583  0.9156 -0.4341  1.2061
  830SOL    HW2 2490   2.346   4.071   1.556  1.6304 -0.5145 -0.7043
  831SOL     OW 2491   2.659   5.941   0.795  0.4867  0.1143  0.8832
  831SOL    HW1 2492   2.596   5.982   0.854  0.7861 -1.4554  2.4046
  831SOL    HW2 2493   2.666   5.851   0.828  0.9309 -0.7300 -1.3831
  832SOL     OW 2494   1.122   2.871   2.132  0.4999 -0.0985  0.2947
  832SOL    HW1 2495   1.042   2.868   2.184 -0.1875  0.6660 -0.6830
  832SOL    HW2 2496   1.092   2.857   2.042  1.1007  2.7378 -0.4323
  833SOL     OW 2497   1.131   4.481   3.762  0.3330  0.0027 -0.3919
  833SOL    HW1 2498   1.089   4.447   3.684  0.2324  0.0453 -0.3560
  833SOL    HW2 2499   1.211   4.429   3.771  1.0213  0.8613 -1.2708
  834SOL     OW 2500   1.453   1.262   0.277 -0.3674 -0.3111  0.4247
  834SOL    HW1 2501   1.463   1.167   0.269 -0.5785 -0.3653  0.7599
  834SOL    HW2 2502   1.511   1.287   0.349 -0.2325 -0.1690  0.2686
  835SOL     OW 2503   4.144   3.853   1.737 -0.4919  0.1323  0.0804
  835SOL    HW1 2504   4.194   3.930   1.764 -0.3765  0.1578 -0.1974
  835SOL    HW2 2505   4.208   3.782   1.736 -0.1119  0.4402 -1.6350
  836SOL     OW 2506   4.707   2.113   4.205  0.3892 -0.1798  0.0364
  836SOL    HW1 2507   4.678   2.067   4.284  1.0087 -2.3371 -0.9195
  836SOL    HW2 2508   4.660   2.070   4.134  1.1441  0.5636 -0.9374
  837SOL     OW 2509   0.449   4.335   6.020  0.0135 -0.3549  0.7081
  837SOL    HW1 2510   0.484   4.414   5.979 -2.3833  0.1995 -0.4847
  837SOL    HW2 2511   0.469   4.265   5.958 -0.3269 -0.1662  0.3790
  838SOL     OW 2512   2.729   0.983   4.972 -0.1694  0.1998 -0.0051
  838SOL    HW1 2513   2.817   1.018   4.955 -0.2714  1.7519  2.3151
  838SOL    HW2 2514   2.739   0.934   5.054 -0.3519 -4.3446 -2.3255
  839SOL     OW 2515   2.839   3.169   5.631 -0.0121  0.3095 -0.2640
  839SOL    HW1 2516   2.859   3.261   5.614 -1.3113  1.0494  1.8111
  839SOL    HW2 2517   2.858   3.157   5.724  0.0587 -1.5281 -0.4766
  840SOL     OW 2518   2.270   4.353   0.523 -0.7002 -0.1087  0.1939
  840SOL    HW1 2519   2.312   4.288   0.468 -1.8152 -1.8138  1.2685
  840SOL    HW2 2520   2.264   4.312   0.609 -1.2199  1.5151  0.9703
  841SOL     OW 2521   3.652   3.529   2.475  0.2465  0.8404 -0.0045
  841SOL    HW1 2522   3.592   3.601   2.492 -1.4599 -0.0712 -1.7815
  841SOL    HW2 2523   3.612   3.453   2.516  1.0994  0.5435  0.3006
  842SOL     OW 2524   5.630   1.319   5.951  0.0727 -0.4182 -0.8635
  842SOL    HW1 2525   5.535   1.315   5.953  0.1177 -2.1899 -1.0321
  842SOL    HW2 2526   5.650   1.411   5.934 -1.5804  0.1499  0.0542
  843SOL     OW 2527   4.974   2.827   2.691 -0.0685  0.4379 -0.6260
  843SOL    HW1 2528   4.972   2.738   2.654 -0.4343  0.4521 -0.6487
  843SOL    HW2 2529   5.050   2.868   2.651 -0.7848  0.6504 -1.8273
  844SOL     OW 2530   1.543   5.095   1.212  0.2658 -0.1575  0.3616
  844SOL    HW1 2531   1.577   5.115   1.299 -0.4214  0.4801  0.4879
  844SOL    HW2 2532   1.578   5.164   1.156  0.7051 -0.5657  0.1253
  845SOL     OW 2533   1.062   0.563   2.154  0.2944  0.1999 -0.1917
  845SOL    HW1 2534   1.108   0.502   2.212  1.1298  0.2309 -0.7962
  845SOL    HW2 2535   1.036   0.509   2.079  0.8171  0.5324 -0.6153
  846SOL     OW 2536   2.744   5.920   0.167  0.2288  0.0490  0.0269
  846SOL    HW1 2537   2.828   5.902   0.210  1.4920 -0.3738 -2.4306
  846SOL    HW2 2538   2.752   6.010   0.135 -0.9335  0.5784  1.1614
  847SOL     OW 2539   5.967   3.931   5.943 -0.5623  0.5389  0.0462
  847SOL    HW1 2540   5.907   4.005   5.937 -2.1432 -0.5903  1.0295
  847SOL    HW2 2541   6.054   3.968   5.925 -1.5358  2.2076 -1.5241
  848SOL     OW 2542   0.318   1.386   0.056 -0.1758 -0.0879  0.5179
  848SOL    HW1 2543   0.405   1.374   0.019  0.4779  2.2025  1.1445
  848SOL    HW2 2544   0.294   1.300   0.090  0.9990 -1.2291 -1.3342
  849SOL     OW 2545   2.369   2.678   5.506  0.3529 -0.2693  0.3312
  849SOL    HW1 2546   2.424   2.740   5.458 -0.3026  0.9770  1.1159
  849SOL    HW2 2547   2.311   2.640   5.440 -1.3394  2.2693  0.2016
  850SOL     OW 2548   0.653   4.152   2.699 -0.2056 -0.1861  0.0953
  850SOL    HW1 2549   0.728   4.210   2.683 -1.8989  2.0576 -0.2742
  850SOL    HW2 2550   0.676   4.106   2.780  1.5329  0.4692  0.0209
  851SOL     OW 2551   5.746   3.172   4.398  0.3709 -0.5126  0.6761
  851SOL    HW1 2552   5.730   3.101   4.460  2.1119 -2.0359 -0.5191
  851SOL    HW2 2553   5.702   3.248   4.437  0.6297 -1.6011  3.2918
  852SOL     OW 2554   0.766   4.910   1.498  0.0141  0.8629  0.2238
  852SOL    HW1 2555   0.793   4.831   1.545 -0.5267 -0.1103 -1.0409
  852SOL    HW2 2556   0.779   4.889   1.406 -3.3802  0.9018 -0.4004
  853SOL     OW 2557   4.457   3.571   1.179  0.1338 -0.2100  0.1774
  853SOL    HW1 2558   4.452   3.557   1.084 -0.5099  0.1165  0.1509
  853SOL    HW2 2559   4.367   3.594   1.203 -0.1160 -2.0497  1.1613
  854SOL     OW 2560   4.595   5.757   3.340 -0.1137 -0.3051 -0.1314
  854SOL    HW1 2561   4.550   5.767   3.424 -1.6730 -2.1160 -0.6788
  854SOL    HW2 2562   4.547   5.814   3.280 -1.1980 -1.5420 -0.5027
  855SOL     OW 2563   1.251   0.729   1.223  0.0299  0.0509 -0.2358
  855SOL    HW1 2564   1.194   0.652   1.231  0.0463 -0.0341 -0.8726
  855SOL    HW2 2565   1.196   0.803   1.249  0.2020 -0.2412  0.9966
  856SOL     OW 2566   3.593   2.538   1.236  0.0809 -0.2060  0.7662
  856SOL    HW1 2567   3.556   2.465   1.286  0.1595 -1.0752 -0.3958
  856SOL    HW2 2568   3.539   2.543   1.157  0.3932  0.6805  0.5974
  857SOL     OW 2569   5.485   1.136   1.773 -0.3594 -0.0372  0.5529
  857SOL    HW1 2570   5.560   1.196   1.777  1.4354 -2.0316 -0.8061
  857SOL    HW2 2571   5.409   1.194   1.765  1.2158  2.0840 -0.2048
  858SOL     OW 2572   0.207   4.821   4.449  0.2699 -0.0182  0.1695
  858SOL    HW1 2573   0.200   4.736   4.491  0.3923 -0.7866 -1.2924
  858SOL    HW2 2574   0.126   4.830   4.398  0.1704  0.8296  0.4576
  859SOL     OW 2575   4.358   5.535   2.282 -0.4192 -0.3532  0.4456
  859SOL    HW1 2576   4.283   5.581   2.246 -0.5894  0.4097  1.7044
  859SOL    HW2 2577   4.353   5.447   2.244  0.8289  0.9996 -3.3254
  860SOL     OW 2578   0.296   5.876   2.360  0.0972 -0.2740 -0.0797
  860SOL    HW1 2579   0.253   5.848   2.279 -2.7372 -0.0668  1.2171
  860SOL    HW2 2580   0.268   5.811   2.425  1.2414  0.2934  1.0244
  861SOL     OW 2581   5.891   1.622   0.515  0.2616 -0.0299 -0.5961
  861SOL    HW1 2582   5.876   1.581   0.429  0.5562  0.4475 -0.8781
  861SOL    HW2 2583   5.834   1.699   0.515 -1.3198 -1.1152  0.4637
  862SOL     OW 2584   1.901   2.789   2.278  0.0503 -0.3686 -0.5896
  862SOL    HW1 2585   1.824   2.746   2.315 -0.3706  1.2694  0.5901
  862SOL    HW2 2586   1.870   2.878   2.258  1.4473  0.0879 -0.7745
  863SOL     OW 2587   1.709   3.093   4.649  0.8612  0.0228 -0.4510
  863SOL    HW1 2588   1.726   3.003   4.620 -1.9642 -1.4069  1.8002
  863SOL    HW2 2589   1.618   3.109   4.626  0.3241  1.0093  2.0497
  864SOL     OW 2590   2.774   2.219   2.115  0.0526  0.4079  0.1974
  864SOL    HW1 2591   2.857   2.249   2.152 -0.2907  1.8458 -0.1409
  864SOL    HW2 2592   2.713   2.222   2.188  0.3674 -1.0628  0.5510
  865SOL     OW 2593   0.886   4.785   5.984  0.7012 -0.0445 -0.5187
  865SOL    HW1 2594   0.800   4.745   6.001  0.0925  1.1260 -0.6830
  865SOL    HW2 2595   0.865   4.870   5.945  1.9748 -0.3007 -1.8241
  866SOL     OW 2596   5.345   2.896   3.057  0.2925  0.4719  0.0450
  866SOL    HW1 2597   5.268   2.913   3.003  0.7626 -1.7377 -1.4738
  866SOL    HW2 2598   5.385   2.982   3.070 -0.3365  1.2375 -2.4796
  867SOL     OW 2599   3.063   3.287   0.038 -0.4870 -0.2136 -0.6285
  867SOL    HW1 2600   3.053   3.294  -0.057  0.1680  1.3052 -0.6191
  867SOL    HW2 2601   3.157   3.297   0.053 -0.7527  1.2255  0.2652
  868SOL     OW 2602   5.889   0.288   4.256 -0.6587 -0.4713 -0.0179
  868SOL    HW1 2603   5.876   0.368   4.205 -0.4253 -1.1152 -1.1375
  868SOL    HW2 2604   5.924   0.225   4.192 -0.4362 -1.3362  0.9346
  869SOL     OW 2605   4.248   4.037   5.790 -0.3011  0.2338  0.7913
  869SOL    HW1 2606   4.343   4.043   5.788 -0.2298 -0.8926 -0.7972
  869SOL    HW2 2607   4.229   3.977   5.862  0.2898 -0.7564  0.1363
  870SOL     OW 2608   2.194   3.766   5.731  0.1508  0.0332  0.3870
  870SOL    HW1 2609   2.288   3.748   5.732  0.1766  0.1147 -0.0592
  870SOL    HW2 2610   2.187   3.860   5.716  0.0137 -0.3928 -3.0235
  871SOL     OW 2611   0.530   1.168   0.178  0.0326 -0.2475  0.5445
  871SOL    HW1 2612   0.527   1.214   0.094  2.3811  0.1590  0.6206
  871SOL    HW2 2613   0.535   1.075   0.154  0.9180 -0.1222  0.2114
  872SOL     OW 2614   4.641   3.776   5.292  0.0110 -0.3026 -0.1696
  872SOL    HW1 2615   4.583   3.725   5.349  1.2452 -3.0725 -1.2320
  872SOL    HW2 2616   4.626   3.740   5.205 -0.2988  2.4231 -1.3498
  873SOL     OW 2617   0.436   1.045   0.598 -0.0383  0.6099  0.4210
  873SOL    HW1 2618   0.362   1.050   0.538  0.0285 -1.0332  0.1558
  873SOL    HW2 2619   0.407   0.985   0.667  0.8478  0.3556  0.5887
  874SOL     OW 2620   2.986   2.042   0.586 -0.0376 -0.0480 -0.3348
  874SOL    HW1 2621   2.986   2.012   0.677 -1.7598 -0.6452 -0.4964
  874SOL    HW2 2622   2.967   1.964   0.535  1.4213  0.1840 -1.2816
  875SOL     OW 2623   3.027   2.276   4.540  0.1291  0.2279 -0.8545
  875SOL    HW1 2624   2.951   2.226   4.569  0.8126 -0.0505  0.5831
  875SOL    HW2 2625   3.036   2.254   4.448 -2.0629  0.9945 -1.3124
  876SOL     OW 2626   4.354   2.444   5.529  0.3994  0.1362  0.5124
  876SOL    HW1 2627   4.324   2.432   5.619 -1.4431  0.0448 -0.0828
  876SOL    HW2 2628   4.296   2.511   5.493  0.9573 -0.0132 -0.6942
  877SOL     OW 2629   1.207   1.903   0.404 -0.4917 -0.2474 -0.4397
  877SOL    HW1 2630   1.185   1.821   0.449  1.1122 -0.7867 -0.5681
  877SOL    HW2 2631   1.138   1.964   0.431 -2.9894 -2.1719 -2.0471
  878SOL     OW 2632   1.934   0.779   0.988  0.2129  0.6586  0.1769
  878SOL    HW1 2633   1.953   0.850   0.926 -0.6772  0.0711 -0.7910
  878SOL    HW2 2634   1.839   0.782   1.000  0.0234 -0.9857 -0.6686
  879SOL     OW 2635   1.006   3.906   5.672 -0.1525 -0.2563  0.1300
  879SOL    HW1 2636   0.976   3.937   5.757 -0.7911 -0.0048 -0.1816
  879SOL    HW2 2637   0.981   3.975   5.611 -0.2197 -0.6959 -0.3443
  880SOL     OW 2638   0.380   4.723   5.890 -0.7953 -0.1510 -0.2875
  880SOL    HW1 2639   0.373   4.740   5.796  0.8553  0.2274 -0.3819
  880SOL    HW2 2640   0.308   4.772   5.929  0.4100  2.4430 -1.0907
  881SOL     OW 2641   0.642   2.059   0.181  0.0685  0.0988 -0.0961
  881SOL    HW1 2642   0.725   2.050   0.133 -0.4663  0.1953 -1.0821
  881SOL    HW2 2643   0.577   2.071   0.112 -0.6187  1.1222  0.7062
  882SOL     OW 2644   0.351   4.896   1.127  0.3539  0.3172 -0.2145
  882SOL    HW1 2645   0.352   4.806   1.158  0.0045  0.1683 -0.6435
  882SOL    HW2 2646   0.438   4.930   1.152  0.0808  0.2172  0.9611
  883SOL     OW 2647   2.293   2.397   1.123 -0.1966 -0.1251  0.4318
  883SOL    HW1 2648   2.374   2.434   1.087 -0.2664  0.2097  0.6124
  883SOL    HW2 2649   2.275   2.450   1.201 -0.1756 -0.6900  0.8278
  884SOL     OW 2650   5.213   2.990   4.856  0.0178 -0.0021 -0.2513
  884SOL    HW1 2651   5.210   3.069   4.911  1.2063 -0.4097  0.4250
  884SOL    HW2 2652   5.132   2.943   4.878 -0.7946  1.0935 -0.7920
  885SOL     OW 2653   2.857   4.021   2.379 -0.0125  0.0557  0.2568
  885SOL    HW1 2654   2.919   3.952   2.403 -1.6966 -0.4391  3.7172
  885SOL    HW2 2655   2.894   4.059   2.299  2.5558 -2.8264 -0.1088
  886SOL     OW 2656   0.302   2.317   1.129 -0.2434 -0.6239 -0.6561
  886SOL    HW1 2657   0.273   2.330   1.220  1.6745  0.5169 -0.1495
  886SOL    HW2 2658   0.267   2.393   1.082  1.9359  0.9037  0.0128
  887SOL     OW 2659   1.195   5.991   4.434  0.4856  0.2839  0.4437
  887SOL    HW1 2660   1.246   5.976   4.514  2.2952  1.3810 -0.4385
  887SOL    HW2 2661   1.172   5.904   4.403  1.5813 -0.2406  1.0424
  888SOL     OW 2662   1.100   4.511   0.217  0.3157  0.1823  0.0098
  888SOL    HW1 2663   1.167   4.490   0.281 -1.0353  0.0359  1.4376
  888SOL    HW2 2664   1.023   4.535   0.269 -0.4579  1.3154 -1.5641
  889SOL     OW 2665   5.821   2.025   5.507 -0.6582 -0.4483  0.3754
  889SOL    HW1 2666   5.896   1.984   5.464  0.7996  2.2927  0.0253
  889SOL    HW2 2667   5.745   1.989   5.463  0.6225 -0.9305 -1.5745
  890SOL     OW 2668   5.271   2.167   2.802  0.0163  0.5047 -0.2368
  890SOL    HW1 2669   5.183   2.132   2.820 -0.5049  1.3859 -1.0120
  890SOL    HW2 2670   5.305   2.190   2.888 -1.0026  1.2764 -0.0142
  891SOL     OW 2671   4.930   5.030   1.636  0.1229 -0.2872 -0.6850
  891SOL    HW1 2672   4.961   5.092   1.569  0.5375 -1.1578 -1.3285
  891SOL    HW2 2673   4.840   5.010   1.610  0.2806 -0.6184 -0.9874
  892SOL     OW 2674   3.812   3.396   3.896  0.3881  0.2313 -0.1677
  892SOL    HW1 2675   3.776   3.383   3.808 -0.0868 -0.9273  0.1890
  892SOL    HW2 2676   3.737   3.415   3.951  0.4432 -1.0403  0.3623
  893SOL     OW 2677   0.749   2.654   2.933  0.2256  0.1554  0.1030
  893SOL    HW1 2678   0.690   2.722   2.966 -1.1293  0.2063 -2.2388
  893SOL    HW2 2679   0.695   2.601   2.875  1.9697 -1.1773 -0.3929
  894SOL     OW 2680   2.130   2.247   0.458 -0.7183 -0.0631 -0.6751
  894SOL    HW1 2681   2.042   2.226   0.488  0.2217 -1.3862  1.4206
  894SOL    HW2 2682   2.119   2.323   0.401 -3.3776 -1.1902 -1.8479
  895SOL     OW 2683   4.969   0.379   0.483 -0.0672 -0.3975  0.4367
  895SOL    HW1 2684   4.928   0.452   0.436 -0.1673 -0.5903  0.2159
  895SOL    HW2 2685   5.023   0.335   0.417  0.4523 -0.1803  0.7144
  896SOL     OW 2686   2.795   4.064   1.598 -0.0083 -0.0140  0.1464
  896SOL    HW1 2687   2.725   4.109   1.645 -0.3018 -2.1849  1.9510
  896SOL    HW2 2688   2.836   4.008   1.664  1.4130 -1.1317 -1.5908
  897SOL     OW 2689   1.717   4.564   1.249 -0.1042  0.0021 -0.0968
  897SOL    HW1 2690   1.782   4.626   1.216  2.5999 -2.0747  0.9095
  897SOL    HW2 2691   1.763   4.480   1.250 -3.0710 -1.7583  0.0823
  898SOL     OW 2692   3.908   5.019   4.690  0.4756  0.3227 -0.0405
  898SOL    HW1 2693   3.865   5.015   4.775 -1.8572 -1.2169 -1.1956
  898SOL    HW2 2694   3.990   4.970   4.701  0.3429  0.3827  1.3482
  899SOL     OW 2695   1.335   0.325   0.380  0.2712  0.2566 -0.4419
  899SOL    HW1 2696   1.412   0.316   0.325  1.8885 -0.3590  1.7845
  899SOL    HW2 2697   1.359   0.392   0.444  0.1349 -1.8838  2.0286
  900SOL     OW 2698   5.062   2.989   2.284  0.3970 -0.0886  1.0715
  900SOL    HW1 2699   5.099   3.044   2.354 -1.0835  0.1319  1.7318
  900SOL    HW2 2700   5.057   2.902   2.323 -1.2101  0.2022  1.5795
  901SOL     OW 2701   1.771   3.135   3.880 -0.2162  0.4646  0.2554
  901SOL    HW1 2702   1.784   3.114   3.973  0.8247  1.4084  0.3477
  901SOL    HW2 2703   1.715   3.212   3.880  0.4052  0.9229  0.1370
  902SOL     OW 2704   1.225   0.155   0.180 -0.3395 -0.1439 -0.6239
  902SOL    HW1 2705   1.144   0.126   0.222 -0.0877 -0.3949 -0.3139
  902SOL    HW2 2706   1.253   0.230   0.233  0.4643 -1.0173  0.2154
  903SOL     OW 2707   2.315   2.194   2.120 -0.0307 -0.2121  0.6097
  903SOL    HW1 2708   2.359   2.113   2.144  0.2913 -0.4360 -0.6509
  903SOL    HW2 2709   2.226   2.185   2.155 -0.7439 -2.1828 -1.4867
  904SOL     OW 2710   2.062   4.849   1.889 -0.0576  0.0729  0.5904
  904SOL    HW1 2711   2.089   4.850   1.797 -0.0222 -0.4758  0.5915
  904SOL    HW2 2712   2.121   4.785   1.931  0.7132  1.1698  1.2407
  905SOL     OW 2713   1.852   4.027   4.629 -0.8444 -0.0736 -0.1550
  905SOL    HW1 2714   1.770   3.980   4.645 -1.5266  1.1704  0.1955
  905SOL    HW2 2715   1.882   3.995   4.544 -0.9740 -1.5289  0.3186
  906SOL     OW 2716   4.820   3.267   3.485 -0.1663 -0.2734  0.4953
  906SOL    HW1 2717   4.804   3.348   3.436 -2.9577 -1.2983 -0.5226
  906SOL    HW2 2718   4.819   3.198   3.418 -0.6346 -1.3815  1.5923
  907SOL     OW 2719   3.054   4.389   5.730 -0.1434 -0.5131 -0.1373
  907SOL    HW1 2720   3.148   4.377   5.746  0.0392  0.3964 -0.4688
  907SOL    HW2 2721   3.050   4.444   5.652 -0.9404  0.5637  0.6386
  908SOL     OW 2722   4.407   1.972   2.688 -0.7223  0.5426  0.2388
  908SOL    HW1 2723   4.486   1.974   2.634 -0.4765 -0.3739  0.5532
  908SOL    HW2 2724   4.439   1.981   2.778 -0.7026 -2.2600  0.6021
  909SOL     OW 2725   0.141   2.681   1.682 -0.0334  0.0655  0.3691
  909SOL    HW1 2726   0.161   2.740   1.609 -0.1680 -1.4347 -0.9391
  909SOL    HW2 2727   0.221   2.630   1.693 -0.1724 -0.0177  0.9891
  910SOL     OW 2728   3.733   3.965   4.348 -0.1476 -0.0850 -0.0469
  910SOL    HW1 2729   3.793   3.891   4.345 -0.1017 -0.0947  0.8498
  910SOL    HW2 2730   3.652   3.928   4.383  0.2160  0.4950  1.4745
  911SOL     OW 2731   4.672   3.906   0.280  0.0107 -0.9264 -0.2215
  911SOL    HW1 2732   4.709   3.834   0.228 -0.8543 -0.8575 -0.9447
  911SOL    HW2 2733   4.693   3.883   0.371  0.9380 -1.3964 -0.5404
  912SOL     OW 2734   5.155   2.194   2.559 -0.2284 -0.0711  0.3094
  912SOL    HW1 2735   5.219   2.200   2.630  0.0162 -0.1047  0.0932
  912SOL    HW2 2736   5.117   2.282   2.553  0.5998  0.2616 -0.3008
  913SOL     OW 2737   3.527   3.061   1.834  0.7422  0.4011 -0.3668
  913SOL    HW1 2738   3.545   3.072   1.927 -0.2374  2.0543 -0.3446
  913SOL    HW2 2739   3.614   3.066   1.793  1.2026 -0.5323  0.4457
  914SOL     OW 2740   5.942   4.248   0.474 -0.3626 -0.1985 -0.5489
  914SOL    HW1 2741   5.996   4.242   0.396  0.8363  1.5186  0.0890
  914SOL    HW2 2742   5.858   4.282   0.443 -0.8316 -2.0609 -1.4228
  915SOL     OW 2743   4.736   3.612   2.342  0.1231  0.0327 -0.2623
  915SOL    HW1 2744   4.812   3.557   2.361 -1.1717 -1.5424  0.6554
  915SOL    HW2 2745   4.701   3.635   2.428 -1.5342 -0.9109 -0.6333
  916SOL     OW 2746   0.142   3.521   1.622  0.1818  0.7324 -0.0400
  916SOL    HW1 2747   0.112   3.553   1.708 -0.0607 -0.4870  0.3547
  916SOL    HW2 2748   0.234   3.500   1.635  1.0267  3.5196 -0.9769
  917SOL     OW 2749   3.226   2.656   3.447 -0.0140 -0.0650 -0.4959
  917SOL    HW1 2750   3.260   2.610   3.524 -1.3666  1.3433  1.0307
  917SOL    HW2 2751   3.276   2.738   3.445  0.2557 -0.2468 -1.3474
  918SOL     OW 2752   1.749   1.302   2.787  0.3002 -0.4159  0.0557
  918SOL    HW1 2753   1.762   1.208   2.804  2.0775 -0.0127  1.2148
  918SOL    HW2 2754   1.661   1.307   2.750 -0.0341 -2.4938  0.4031
  919SOL     OW 2755   2.763   4.138   4.058 -0.7789  0.0454 -0.0086
  919SOL    HW1 2756   2.822   4.134   4.133  1.4756  0.5671 -1.6650
  919SOL    HW2 2757   2.790   4.064   4.003 -1.5440  0.4113 -0.8958
  920SOL     OW 2758   0.426   1.648   2.364 -0.4525  0.7379 -0.3581
  920SOL    HW1 2759   0.456   1.588   2.432 -1.0620  1.1274  0.2588
  920SOL    HW2 2760   0.488   1.721   2.368 -1.1325  1.2841  0.5461
  921SOL     OW 2761   5.436   5.472   5.681 -0.4758  0.0387  0.2510
  921SOL    HW1 2762   5.426   5.469   5.586 -0.2321 -0.8269  0.2442
  921SOL    HW2 2763   5.464   5.562   5.699 -2.9601  0.9975 -0.2246
  922SOL     OW 2764   3.075   5.788   0.542 -0.3622 -0.3740  0.4790
  922SOL    HW1 2765   3.000   5.737   0.511  0.6108 -1.5120 -0.0265
  922SOL    HW2 2766   3.040   5.838   0.617 -1.5740 -1.0033  0.3575
  923SOL     OW 2767   1.609   3.684   1.556  0.6527  0.0871  0.0225
  923SOL    HW1 2768   1.631   3.716   1.469  0.9699  1.5127  0.5956
  923SOL    HW2 2769   1.514   3.669   1.553 -0.1630  4.0597  0.5287
  924SOL     OW 2770   5.320   3.739   4.962  0.1805 -0.0431  0.0436
  924SOL    HW1 2771   5.411   3.756   4.984  0.3391  1.4803 -1.5633
  924SOL    HW2 2772   5.323   3.688   4.881 -0.4085 -1.2985  0.7813
  925SOL     OW 2773   5.874   2.431   4.466  0.5221 -0.0752  0.0546
  925SOL    HW1 2774   5.957   2.434   4.418 -0.9818 -0.4117 -2.7646
  925SOL    HW2 2775   5.853   2.338   4.472 -0.1266  0.0523 -0.1434
  926SOL     OW 2776   1.050   1.734   3.838 -0.1672 -0.2502 -0.2395
  926SOL    HW1 2777   1.056   1.803   3.772 -1.3998 -1.2800 -1.4820
  926SOL    HW2 2778   1.099   1.661   3.801 -1.0281 -0.9088 -0.1200
  927SOL     OW 2779   2.237   0.070   3.001  0.6830  0.4648 -0.1285
  927SOL    HW1 2780   2.250   0.155   3.044  0.9626  0.9096 -1.0531
  927SOL    HW2 2781   2.147   0.073   2.969  0.0862 -0.3309  1.3815
  928SOL     OW 2782   2.037   0.225   1.376  0.1385 -0.2104  0.0803
  928SOL    HW1 2783   2.078   0.139   1.380 -0.6315 -0.6872 -1.5322
  928SOL    HW2 2784   2.024   0.250   1.468  0.5614 -1.7042  0.5667
  929SOL     OW 2785   0.558   1.684   0.894  0.3580 -0.0644 -0.0989
  929SOL    HW1 2786   0.585   1.759   0.840 -2.2630 -0.3337 -1.9878
  929SOL    HW2 2787   0.488   1.643   0.844 -0.8850 -1.5626  2.6555
  930SOL     OW 2788   1.209   3.308   2.426  0.4023  0.0775 -0.2155
  930SOL    HW1 2789   1.237   3.398   2.442  0.7164 -0.1957  0.9008
  930SOL    HW2 2790   1.285   3.255   2.452 -0.4252 -0.5838  0.9692
  931SOL     OW 2791   1.047   4.847   1.707 -0.3222 -0.7309 -0.6515
  931SOL    HW1 2792   1.025   4.919   1.766 -1.6464 -2.5834  1.3110
  931SOL    HW2 2793   1.139   4.829   1.724 -0.8386 -1.6798  1.5210
  932SOL     OW 2794   0.973   1.845   2.304 -0.6538  0.4432  0.2551
  932SOL    HW1 2795   1.021   1.894   2.237 -1.0261  0.8060  0.2438
  932SOL    HW2 2796   0.884   1.883   2.302 -0.8726 -0.0515  0.4361
  933SOL     OW 2797   2.418   2.988   1.337  0.7306 -0.7239  0.2575
  933SOL    HW1 2798   2.425   2.986   1.241 -0.3965 -1.8579  0.1725
  933SOL    HW2 2799   2.474   3.061   1.363 -0.8674  1.2447 -1.4424
  934SOL     OW 2800   5.488   2.778   1.097 -0.0393 -0.1566  0.0373
  934SOL    HW1 2801   5.513   2.689   1.120 -2.4677 -0.7193  0.7407
  934SOL    HW2 2802   5.520   2.790   1.008 -0.1506 -1.9269 -0.2713
  935SOL     OW 2803   2.630   3.149   2.280 -0.2528 -0.0454  0.5478
  935SOL    HW1 2804   2.562   3.082   2.276  1.5242 -1.8805 -1.6421
  935SOL    HW2 2805   2.604   3.213   2.214  0.0753 -0.7148 -0.2470
  936SOL     OW 2806   5.652   3.604   2.509 -0.3724 -0.2936  0.9054
  936SOL    HW1 2807   5.727   3.640   2.556 -0.5843  1.3139  0.0915
  936SOL    HW2 2808   5.686   3.586   2.421 -1.5851  3.7250 -0.6284
  937SOL     OW 2809   4.128   4.781   4.016 -0.0921  0.0519 -0.2921
  937SOL    HW1 2810   4.074   4.853   3.982  0.5040  1.2066  1.1166
  937SOL    HW2 2811   4.196   4.770   3.950  0.2895  1.3666 -0.1501
  938SOL     OW 2812   0.463   5.360   1.083  0.3309 -0.6468  0.8008
  938SOL    HW1 2813   0.545   5.310   1.087  0.5247 -0.4815 -0.5975
  938SOL    HW2 2814   0.484   5.435   1.028 -0.6719 -0.4190  0.7100
  939SOL     OW 2815   5.529   1.697   3.868  0.2604 -0.4763 -0.1119
  939SOL    HW1 2816   5.509   1.746   3.788  0.9042 -1.6556 -1.0258
  939SOL    HW2 2817   5.610   1.736   3.901  0.6411 -0.7584 -0.7016
  940SOL     OW 2818   3.919   2.527   4.863 -0.3245 -0.1057  0.4075
  940SOL    HW1 2819   3.953   2.616   4.869 -0.7326  0.1343 -0.5469
  940SOL    HW2 2820   3.847   2.534   4.800 -1.1186 -0.8883  1.1990
  941SOL     OW 2821   4.838   3.796   5.468  0.0924  0.4085  0.2401
  941SOL    HW1 2822   4.780   3.795   5.544  0.0536  1.5215  0.2360
  941SOL    HW2 2823   4.783   3.769   5.395  0.1372 -0.7038  0.5875
  942SOL     OW 2824   0.241   3.889   1.797 -0.3736  0.7778 -0.5051
  942SOL    HW1 2825   0.261   3.961   1.737  1.8710  2.1426  1.7047
  942SOL    HW2 2826   0.316   3.830   1.791 -1.1553 -0.2290 -0.6246
  943SOL     OW 2827   4.619   3.039   5.340 -0.3694  0.0577 -0.1208
  943SOL    HW1 2828   4.639   3.007   5.252 -0.4333 -1.2171  0.3037
  943SOL    HW2 2829   4.527   3.016   5.354 -1.1358  2.4621 -0.6068
  944SOL     OW 2830   0.459   3.702   1.750  0.2106 -0.1734 -0.0538
  944SOL    HW1 2831   0.470   3.623   1.696  3.6317 -0.1108  0.3226
  944SOL    HW2 2832   0.516   3.687   1.825 -2.6550  0.7473  2.4828
  945SOL     OW 2833   0.244   2.609   1.069  0.5481 -0.1576 -0.1980
  945SOL    HW1 2834   0.153   2.606   1.098  0.8050 -1.3479  0.5687
  945SOL    HW2 2835   0.295   2.605   1.150  1.3252  2.5525 -0.4490
  946SOL     OW 2836   0.638   4.968   0.536  0.1966 -0.0614  0.0461
  946SOL    HW1 2837   0.697   4.991   0.608 -0.5192 -1.4195  1.1183
  946SOL    HW2 2838   0.683   4.999   0.457  1.7360  0.0776  0.9391
  947SOL     OW 2839   5.463   2.356   5.907  0.4053 -0.4162  0.2050
  947SOL    HW1 2840   5.520   2.293   5.863 -1.6024 -1.3000 -1.2838
  947SOL    HW2 2841   5.392   2.372   5.845  0.1147  2.3175  1.0781
  948SOL     OW 2842   1.470   4.448   3.292  0.2564  0.0277 -0.1380
  948SOL    HW1 2843   1.543   4.485   3.243 -0.3087  0.6682 -0.5114
  948SOL    HW2 2844   1.509   4.376   3.342  1.1472  0.3770 -0.3033
  949SOL     OW 2845   5.616   5.828   2.899  0.1787 -0.1959  0.1520
  949SOL    HW1 2846   5.530   5.796   2.871 -0.6346  1.0802  1.0747
  949SOL    HW2 2847   5.645   5.884   2.827 -1.3287  2.0591  1.1827
  950SOL     OW 2848   2.265   1.431   4.438 -0.0980  0.2564  0.1486
  950SOL    HW1 2849   2.258   1.353   4.493  0.1898  0.0003 -0.1722
  950SOL    HW2 2850   2.351   1.423   4.397  0.6105  1.5109  1.2745
  951SOL     OW 2851   0.080   1.617   2.154 -0.3127  0.2242  0.0616
  951SOL    HW1 2852   0.035   1.607   2.070  0.7543  0.2478 -0.5282
  951SOL    HW2 2853   0.105   1.709   2.157  0.2663  0.0678  0.0812
  952SOL     OW 2854   5.897   4.540   3.491  0.4557  0.0014 -0.3657
  952SOL    HW1 2855   5.980   4.536   3.444  0.5760  1.7961 -0.3506
  952SOL    HW2 2856   5.861   4.626   3.471 -1.2473 -0.5939 -0.0813
  953SOL     OW 2857   5.635   4.570   1.976 -0.1960  0.1530 -0.2253
  953SOL    HW1 2858   5.610   4.647   1.925  0.3345 -0.9462 -2.2710
  953SOL    HW2 2859   5.721   4.591   2.011 -0.6275  0.9874  0.3668
  954SOL     OW 2860   1.119   0.752   5.141  0.2830 -0.0817  0.0720
  954SOL    HW1 2861   1.055   0.790   5.081  0.9155 -0.3270 -0.7924
  954SOL    HW2 2862   1.071   0.734   5.221 -1.3004 -2.3384 -1.2760
  955SOL     OW 2863   2.226   4.245   3.129  0.3300  0.5992  0.3122
  955SOL    HW1 2864   2.295   4.303   3.158  0.7424  0.0061  0.5382
  955SOL    HW2 2865   2.218   4.180   3.199 -0.6982  0.8626  0.4546
  956SOL     OW 2866   3.899   2.738   3.551  0.0683 -0.0049 -0.0257
  956SOL    HW1 2867   3.904   2.832   3.564 -1.7318  0.1556 -0.3288
  956SOL    HW2 2868   3.987   2.714   3.522  1.5564  1.0096  3.2292
  957SOL     OW 2869   1.483   3.064   3.139 -0.0572  0.1862 -0.0471
  957SOL    HW1 2870   1.449   3.121   3.070  0.1439  2.7179  1.8001
  957SOL    HW2 2871   1.557   3.112   3.175  1.1046 -2.0080  0.6310
  958SOL     OW 2872   0.286   3.153   3.935  0.3920 -0.8535  0.1393
  958SOL    HW1 2873   0.224   3.121   3.869  0.6692 -1.6764  0.2696
  958SOL    HW2 2874   0.305   3.243   3.908 -1.9702 -0.0462  0.9033
  959SOL     OW 2875   2.460   1.594   2.635 -0.2984  0.3119 -0.5917
  959SOL    HW1 2876   2.379   1.545   2.651 -0.0615 -0.2010 -0.9368
  959SOL    HW2 2877   2.462   1.606   2.540 -0.5687  1.3775 -0.4804
  960SOL     OW 2878   0.221   2.819   5.085 -0.2292 -0.1237 -0.2541
  960SOL    HW1 2879   0.235   2.872   5.164 -1.1189  0.3780 -0.4259
  960SOL    HW2 2880   0.284   2.852   5.022  1.4464 -1.4244  0.6452
  961SOL     OW 2881   0.445   3.625   3.056 -0.0283 -0.1295 -0.3232
  961SOL    HW1 2882   0.417   3.715   3.076  0.6558  0.0474 -0.1524
  961SOL    HW2 2883   0.374   3.571   3.091 -1.2846  0.3943 -1.9320
  962SOL     OW 2884   3.490   3.419   3.372 -0.2905  0.2146  0.1676
  962SOL    HW1 2885   3.419   3.473   3.337  0.0366  1.2179  1.0097
  962SOL    HW2 2886   3.530   3.380   3.295 -2.6444 -1.5658 -0.2723
  963SOL     OW 2887   2.931   1.818   3.742  0.0172 -0.0912  0.0294
  963SOL    HW1 2888   2.971   1.741   3.783 -0.2493 -0.2376  0.0149
  963SOL    HW2 2889   2.910   1.789   3.653  2.8759  0.9541 -1.0948
  964SOL     OW 2890   3.074   4.638   5.338 -0.7539 -0.3538  0.6467
  964SOL    HW1 2891   3.111   4.558   5.300 -1.0074 -0.5749  0.8544
  964SOL    HW2 2892   3.017   4.672   5.270 -2.4065 -1.5799  1.3414
  965SOL     OW 2893   0.494   1.607   3.353  0.0112 -0.4131  0.4028
  965SOL    HW1 2894   0.481   1.555   3.274  1.8000  0.6663 -0.6943
  965SOL    HW2 2895   0.418   1.665   3.357  1.5472  2.1144 -2.7425
  966SOL     OW 2896   2.672   0.348   4.669  0.3461 -0.0959  0.5006
  966SOL    HW1 2897   2.580   0.357   4.644  0.7541  1.8433 -0.5372
  966SOL    HW2 2898   2.706   0.279   4.613 -0.1159  0.3055 -0.2989
  967SOL     OW 2899   0.342   4.217   0.696  0.1291  0.1147  0.0110
  967SOL    HW1 2900   0.430   4.178   0.702  0.1625 -0.1683 -1.7136
  967SOL    HW2 2901   0.356   4.310   0.715  0.5476 -0.1789  1.1985
  968SOL     OW 2902   2.902   2.565   2.999  0.1211  0.3502  0.0014
  968SOL    HW1 2903   2.997   2.572   2.994  0.2515 -1.1381 -0.0320
  968SOL    HW2 2904   2.884   2.546   3.091 -0.1412  0.4869 -0.0207
  969SOL     OW 2905   1.229   3.692   4.217 -0.5951  0.3235  0.1930
  969SOL    HW1 2906   1.204   3.676   4.126 -1.8455 -0.1655  0.5857
  969SOL    HW2 2907   1.192   3.618   4.265  0.3675  0.3778  1.0573
  970SOL     OW 2908   0.610   1.351   5.527  0.2026 -0.0670 -0.2829
  970SOL    HW1 2909   0.634   1.415   5.593 -2.0008 -0.4870  0.9897
  970SOL    HW2 2910   0.585   1.402   5.451  0.7723  0.4728 -0.1164
  971SOL     OW 2911   4.341   3.474   1.516 -0.0222 -0.6047  0.4280
  971SOL    HW1 2912   4.435   3.487   1.508 -0.2498  0.5418 -0.7998
  971SOL    HW2 2913   4.314   3.535   1.584 -0.1177  0.5098 -0.5693
  972SOL     OW 2914   4.958   1.402   1.086  0.4366  0.2823 -0.2242
  972SOL    HW1 2915   4.955   1.497   1.071 -0.9698  0.2034 -0.5898
  972SOL    HW2 2916   4.951   1.394   1.181 -0.1242  0.5354 -0.2389
  973SOL     OW 2917   1.918   2.056   2.086  0.2887 -0.1007 -0.1286
  973SOL    HW1 2918   1.975   2.063   2.162 -0.0275 -0.4546  0.1445
  973SOL    HW2 2919   1.829   2.050   2.123  0.2812 -2.4764 -0.4166
  974SOL     OW 2920   1.850   3.119   5.583 -0.7255  0.1565  0.1130
  974SOL    HW1 2921   1.792   3.046   5.604 -0.5407 -0.4611 -1.4286
  974SOL    HW2 2922   1.797   3.197   5.599 -1.2996 -0.3358  0.6696
  975SOL     OW 2923   0.806   2.912   3.541 -0.2621 -0.2256 -0.2066
  975SOL    HW1 2924   0.723   2.867   3.523 -0.3686 -0.2861  0.4099
  975SOL    HW2 2925   0.835   2.944   3.455  0.0165 -1.7808 -0.7218
  976SOL     OW 2926   5.075   2.861   3.771  0.6968  0.5729 -0.1252
  976SOL    HW1 2927   5.127   2.860   3.851  1.1963  1.9926 -0.4071
  976SOL    HW2 2928   4.984   2.857   3.801  0.9179 -0.6190  0.4247
  977SOL     OW 2929   2.181   2.550   4.867 -0.6174 -0.3554 -0.1044
  977SOL    HW1 2930   2.132   2.491   4.809 -1.2978  0.8197 -0.7772
  977SOL    HW2 2931   2.173   2.636   4.825  2.1471 -0.1108 -0.3130
  978SOL     OW 2932   0.673   3.277   3.580 -0.3967 -0.7749  0.2864
  978SOL    HW1 2933   0.708   3.279   3.491  1.1766  0.2041  0.8842
  978SOL    HW2 2934   0.732   3.219   3.628  1.7530  2.3728  1.7668
  979SOL     OW 2935   4.753   3.452   5.952 -0.2575  0.0439 -0.2639
  979SOL    HW1 2936   4.704   3.415   6.025 -0.5040  0.8132 -0.0326
  979SOL    HW2 2937   4.738   3.391   5.879 -0.9976 -0.0828 -0.0097
  980SOL     OW 2938   2.700   1.429   2.534 -0.2610 -0.1307 -0.1722
  980SOL    HW1 2939   2.776   1.379   2.504  0.7842  1.4989 -0.3296
  980SOL    HW2 2940   2.668   1.474   2.456  0.5494  1.6303  0.4487
  981SOL     OW 2941   4.624   2.665   5.657  0.3566 -0.1631 -0.1518
  981SOL    HW1 2942   4.580   2.645   5.740 -0.7259 -1.8527 -1.0765
  981SOL    HW2 2943   4.717   2.669   5.679  0.0832 -0.5667  1.1399
  982SOL     OW 2944   0.095   2.092   1.061  0.4854 -0.1111  0.4224
  982SOL    HW1 2945   0.062   2.065   0.975 -0.0777  0.5254  0.4291
  982SOL    HW2 2946   0.177   2.137   1.043  1.9261 -2.5612  0.4850
  983SOL     OW 2947   5.753   3.585   3.127  0.2169  0.1292  0.3655
  983SOL    HW1 2948   5.695   3.641   3.177 -0.8690 -0.3625 -0.3128
  983SOL    HW2 2949   5.696   3.539   3.065  1.4065  0.1411 -0.7877
  984SOL     OW 2950   0.902   1.694   5.436  0.1704 -0.6246  0.3586
  984SOL    HW1 2951   0.841   1.763   5.462  0.1619 -1.7481  3.8424
  984SOL    HW2 2952   0.988   1.731   5.451  0.2132 -0.6988  0.2979
  985SOL     OW 2953   0.915   4.376   1.141 -0.4922  0.0371 -0.2139
  985SOL    HW1 2954   1.005   4.408   1.129  0.2110 -0.8597  2.1234
  985SOL    HW2 2955   0.884   4.421   1.220 -0.6994 -2.3422  1.1613
  986SOL     OW 2956   0.738   3.314   2.059  0.1031  0.3570 -0.0744
  986SOL    HW1 2957   0.795   3.237   2.057 -1.9926 -1.2960 -0.3036
  986SOL    HW2 2958   0.728   3.333   2.152  1.7071  1.2502 -0.0558
  987SOL     OW 2959   5.420   2.303   4.614 -0.3555  0.4855 -0.2765
  987SOL    HW1 2960   5.488   2.253   4.660 -1.8610 -1.1590  0.3200
  987SOL    HW2 2961   5.430   2.279   4.522  0.4636  1.0393 -0.3450
  988SOL     OW 2962   0.278   5.690   0.877 -0.3138 -0.3065 -0.2862
  988SOL    HW1 2963   0.370   5.670   0.895 -1.0170 -1.0375  3.1022
  988SOL    HW2 2964   0.279   5.781   0.850  1.3712 -0.1168  0.2712
  989SOL     OW 2965   5.962   5.770   5.531  0.0046  0.2196  0.0420
  989SOL    HW1 2966   5.901   5.826   5.484  0.2116  0.1286 -0.3396
  989SOL    HW2 2967   6.008   5.721   5.463 -0.4120 -0.6795  0.3796
  990SOL     OW 2968   0.090   4.907   1.905 -0.5884  0.0301  0.3567
  990SOL    HW1 2969   0.183   4.894   1.886 -0.4893 -0.3594  1.0811
  990SOL    HW2 2970   0.053   4.940   1.823  0.2341  0.4191  0.1343
  991SOL     OW 2971   0.335   3.712   5.138 -0.1053 -0.0755  0.1147
  991SOL    HW1 2972   0.348   3.806   5.127 -0.7872  0.0869  0.6526
  991SOL    HW2 2973   0.403   3.672   5.083  0.4620  0.7268  0.2085
  992SOL     OW 2974   5.243   0.067   5.502  0.3117 -0.3752  0.9462
  992SOL    HW1 2975   5.325   0.113   5.518  0.6783 -0.1177 -1.3286
  992SOL    HW2 2976   5.186   0.095   5.574  1.9187  0.0955  2.0986
  993SOL     OW 2977   4.183   4.248   2.438  0.4525  0.4775  0.5045
  993SOL    HW1 2978   4.238   4.305   2.492  1.7371  0.0707 -0.3279
  993SOL    HW2 2979   4.143   4.188   2.500 -1.3806  2.5520  1.4929
  994SOL     OW 2980   0.414   2.661   3.107  0.2902 -0.7054  0.3841
  994SOL    HW1 2981   0.421   2.624   3.019  2.1881 -0.2519  0.3157
  994SOL    HW2 2982   0.394   2.754   3.093 -0.6269 -0.8731  0.4855
  995SOL     OW 2983   2.381   2.438   2.525 -0.0289  0.4674  0.3374
  995SOL    HW1 2984   2.334   2.413   2.446  1.4094 -0.5013 -0.2604
  995SOL    HW2 2985   2.360   2.530   2.539 -0.5095  0.5744 -1.0185
  996SOL     OW 2986   5.808   2.732   2.512  0.1160 -0.6376 -0.0975
  996SOL    HW1 2987   5.856   2.736   2.594  0.7699  1.0520 -0.5023
  996SOL    HW2 2988   5.721   2.700   2.535  0.5017 -0.8043  1.1446
  997SOL     OW 2989   0.748   1.449   3.119 -0.0750 -0.4969  0.3669
  997SOL    HW1 2990   0.691   1.373   3.113 -0.5980 -0.0478 -0.5390
  997SOL    HW2 2991   0.776   1.465   3.029  0.1846  0.2603  0.5752
  998SOL     OW 2992   0.298   5.432   3.255 -0.4796 -0.0027 -0.6962
  998SOL    HW1 2993   0.226   5.432   3.192 -1.3582 -1.3289  0.2523
  998SOL    HW2 2994   0.375   5.453   3.203 -1.4068  0.5369 -1.9090
  999SOL     OW 2995   1.934   3.065   1.966  0.0579  0.3708 -0.3351
  999SOL    HW1 2996   1.953   3.159   1.965 -0.1598  0.4191  0.1062
  999SOL    HW2 2997   1.878   3.052   2.042  1.9054 -0.4639  0.9639
 1000SOL     OW 2998   4.707   0.437   3.519 -0.0677 -0.3366 -0.1987
 1000SOL    HW1 2999   4.791   0.409   3.555 -0.2578  0.5846  1.0348
 1000SOL    HW2 3000   4.650   0.360   3.526  0.4874 -0.7714 -0.4430
 1001SOL     OW 3001   1.173   5.151   3.810 -0.2394 -0.2080  0.0770
 1001SOL    HW1 3002   1.255   5.200   3.822  0.6899 -1.9235  1.2006
 1001SOL    HW2 3003   1.116   5.184   3.879 -0.3393  0.6648 -0.4115
 1002SOL     OW 3004   0.661   3.068   1.775  0.3687  0.2660 -0.4191
 1002SOL    HW1 3005   0.651   2.974   1.759  0.0482  0.2447 -0.1095
 1002SOL    HW2 3006   0.607   3.085   1.853 -0.4329  0.8977 -1.0899
 1003SOL     OW 3007   4.037   4.300   3.402 -0.1281 -0.9585  0.4937
 1003SOL    HW1 3008   4.060   4.238   3.470  0.6470 -0.2379  0.9113
 1003SOL    HW2 3009   4.105   4.368   3.407 -0.4819 -0.5039 -0.4907
 1004SOL     OW 3010   1.014   4.063   3.128  0.7120 -0.7323 -0.7320
 1004SOL    HW1 3011   1.084   4.068   3.063  0.6836 -2.1689 -0.9063
 1004SOL    HW2 3012   1.044   3.997   3.190  0.6153  0.4185  0.5905
 1005SOL     OW 3013   2.628   2.183   1.508 -0.1190  0.0403  0.7426
 1005SOL    HW1 3014   2.684   2.117   1.467  1.4799  2.1414 -0.6633
 1005SOL    HW2 3015   2.675   2.206   1.589 -0.8524 -0.7112  1.4114
 1006SOL     OW 3016   3.830   5.544   3.832  0.1742 -0.4667 -0.0546
 1006SOL    HW1 3017   3.891   5.617   3.838  0.0452 -0.1963 -1.6561
 1006SOL    HW2 3018   3.779   5.561   3.753 -0.1552 -2.0620 -0.2275
 1007SOL     OW 3019   3.372   3.721   3.433 -0.1777 -0.2892  0.3537
 1007SOL    HW1 3020   3.351   3.668   3.356 -0.5719  3.3029 -2.2672
 1007SOL    HW2 3021   3.287   3.752   3.465  0.1218  0.2082  0.6831
 1008SOL     OW 3022   1.964   4.141   2.102  0.0380 -0.1581 -0.7252
 1008SOL    HW1 3023   1.925   4.160   2.016  0.0581 -1.2563 -0.9946
 1008SOL    HW2 3024   1.931   4.054   2.124  0.9284 -0.3515 -0.1255
 1009SOL     OW 3025   2.153   1.134   3.048 -0.0205  0.0782  0.1732
 1009SOL    HW1 3026   2.240   1.166   3.068 -0.3255  1.7522 -0.9860
 1009SOL    HW2 3027   2.096   1.172   3.115  0.1035 -1.0524  0.9589
 1010SOL     OW 3028   5.526   3.559   1.442 -0.3183 -0.1107 -0.0337
 1010SOL    HW1 3029   5.521   3.651   1.415  0.6225  0.2078  0.8125
 1010SOL    HW2 3030   5.581   3.560   1.520  2.6032 -1.7690 -1.9030
 1011SOL     OW 3031   0.264   2.046   4.674 -0.1830  0.0237 -0.2506
 1011SOL    HW1 3032   0.333   2.047   4.607 -2.1744  1.1677 -2.4113
 1011SOL    HW2 3033   0.223   1.960   4.665  1.4646 -1.0583  1.7143
 1012SOL     OW 3034   3.141   3.345   4.542  0.6629  0.1299  0.6114
 1012SOL    HW1 3035   3.221   3.309   4.581  0.3987 -1.4184 -0.1722
 1012SOL    HW2 3036   3.125   3.290   4.465 -0.9464  0.6352  0.5401
 1013SOL     OW 3037   0.040   3.581   5.500  0.1276 -0.1284  0.1613
 1013SOL    HW1 3038  -0.046   3.563   5.463 -0.6258  1.9824  0.7730
 1013SOL    HW2 3039   0.043   3.676   5.511  2.3166 -0.1948  0.7139
 1014SOL     OW 3040   5.806   1.608   2.339 -0.1960  0.5546  0.8163
 1014SOL    HW1 3041   5.873   1.555   2.382 -0.9694  0.4489  1.9118
 1014SOL    HW2 3042   5.845   1.696   2.335  0.6463  0.1754 -0.0358
 1015SOL     OW 3043   3.926   4.972   5.784  0.0611 -0.1673 -0.4528
 1015SOL    HW1 3044   3.938   4.896   5.727  1.0572 -0.3752  0.0065
 1015SOL    HW2 3045   3.990   4.959   5.855 -0.7914  0.3433  0.4317
 1016SOL     OW 3046   4.801   0.793   3.538  0.1585 -0.0287 -0.1972
 1016SOL    HW1 3047   4.858   0.745   3.478  1.2476  0.1460  0.6633
 1016SOL    HW2 3048   4.770   0.868   3.487  1.1278  0.1617 -0.5223
 1017SOL     OW 3049   0.656   1.229   2.402 -0.1099  0.1049 -0.0317
 1017SOL    HW1 3050   0.702   1.145   2.414  1.0829  0.9411  1.7223
 1017SOL    HW2 3051   0.705   1.274   2.334 -0.0754 -0.1794 -0.1952
 1018SOL     OW 3052   1.304   3.938   4.780 -0.8622 -0.0751  0.1394
 1018SOL    HW1 3053   1.368   3.931   4.851 -0.3301  0.8103 -0.2370
 1018SOL    HW2 3054   1.233   3.880   4.806  0.0082 -0.9428  0.6627
 1019SOL     OW 3055   3.029   1.469   1.101 -0.5767 -0.2377  0.5039
 1019SOL    HW1 3056   2.996   1.503   1.184  3.3013  0.3338  2.0375
 1019SOL    HW2 3057   3.032   1.546   1.043 -0.4763  0.0423  0.8745
 1020SOL     OW 3058   1.206   2.050   1.087  0.5573  0.0488  0.4016
 1020SOL    HW1 3059   1.170   2.024   1.171 -0.4684  0.1380  0.0018
 1020SOL    HW2 3060   1.261   2.126   1.106  0.0676  0.2680  0.9300
 1021SOL     OW 3061   1.231   2.157   3.880 -0.6006 -0.2127 -0.6311
 1021SOL    HW1 3062   1.163   2.132   3.817 -0.8203 -0.9094 -0.1239
 1021SOL    HW2 3063   1.256   2.074   3.922  0.7582 -0.0245 -1.0006
 1022SOL     OW 3064   2.251   3.573   3.466 -0.1120  0.1500 -0.0285
 1022SOL    HW1 3065   2.266   3.502   3.404  0.2707  1.1842 -1.1446
 1022SOL    HW2 3066   2.156   3.573   3.479 -0.4369  1.0515 -2.0371
 1023SOL     OW 3067   4.666   2.607   0.775 -0.0686 -0.0783 -0.3982
 1023SOL    HW1 3068   4.652   2.650   0.859  0.4006  0.6691 -0.6965
 1023SOL    HW2 3069   4.656   2.514   0.795  3.1533 -0.2222  1.1930
 1024SOL     OW 3070   4.361   3.389   0.151  0.0550 -0.4787  0.0688
 1024SOL    HW1 3071   4.337   3.481   0.158 -0.2883 -0.6661  1.8830
 1024SOL    HW2 3072   4.454   3.386   0.175  0.5871 -0.4231 -1.7794
 1025SOL     OW 3073   4.299   4.430   0.753 -0.5942  0.3492  0.6509
 1025SOL    HW1 3074   4.232   4.404   0.690  0.4211 -0.7606 -0.0360
 1025SOL    HW2 3075   4.290   4.369   0.826 -0.2292  0.0630  0.4650
 1026SOL     OW 3076   1.127   3.659   3.982  0.1983  0.4244  0.3461
 1026SOL    HW1 3077   1.040   3.654   4.022 -0.4785  1.4144 -0.9135
 1026SOL    HW2 3078   1.121   3.605   3.903  0.4032  1.3070 -0.2848
 1027SOL     OW 3079   3.289   3.156   0.507  0.2449  0.0672 -0.1120
 1027SOL    HW1 3080   3.216   3.184   0.452 -1.1671 -2.1557  0.5020
 1027SOL    HW2 3081   3.299   3.227   0.571 -0.0540  1.2948 -1.3827
 1028SOL     OW 3082   0.555   2.960   1.458  0.1508 -0.1324  0.1566
 1028SOL    HW1 3083   0.466   2.988   1.477  0.3761 -0.5887  2.2266
 1028SOL    HW2 3084   0.568   2.884   1.516  1.5859 -0.6086 -0.7467
 1029SOL     OW 3085   1.737   0.900   0.318  0.1943 -1.1697  0.9451
 1029SOL    HW1 3086   1.827   0.887   0.287 -0.0455 -4.3367  1.2015
 1029SOL    HW2 3087   1.747   0.942   0.403  1.2856  0.1278  0.2283
 1030SOL     OW 3088   4.340   5.480   3.374  0.1159 -0.1713 -0.8473
 1030SOL    HW1 3089   4.307   5.559   3.417  0.8714  0.4139 -1.3096
 1030SOL    HW2 3090   4.353   5.417   3.446 -0.2775  0.1994 -0.4468
 1031SOL     OW 3091   0.076   2.066   0.771  0.2885 -0.2830 -0.4498
 1031SOL    HW1 3092   0.113   1.995   0.719 -0.4490 -0.0896 -1.2561
 1031SOL    HW2 3093  -0.015   2.071   0.743 -0.4570 -0.9057  1.6472
 1032SOL     OW 3094   0.925   4.525   2.426  0.2643 -0.1509  0.6472
 1032SOL    HW1 3095   0.954   4.615   2.416  1.0137 -0.4741 -0.1914
 1032SOL    HW2 3096   0.997   4.472   2.391 -0.5835 -1.0419  0.1969
 1033SOL     OW 3097   4.874   3.715   3.544  0.7487 -0.1681 -0.5041
 1033SOL    HW1 3098   4.842   3.766   3.619  0.9780 -0.2207 -0.3709
 1033SOL    HW2 3099   4.842   3.627   3.560 -1.6644  0.3474 -1.8850
 1034SOL     OW 3100   5.941   5.227   0.961 -0.1125 -0.3586  0.5787
 1034SOL    HW1 3101   5.936   5.142   1.006 -0.8573 -0.2310  0.7374
 1034SOL    HW2 3102   6.028   5.260   0.984 -0.2613 -0.5564  1.4649
 1035SOL     OW 3103   5.653   0.170   3.941 -0.2693 -0.4222 -0.5911
 1035SOL    HW1 3104   5.689   0.107   4.003  1.5341  0.1095 -1.0345
 1035SOL    HW2 3105   5.712   0.166   3.866  1.0690  3.0661  0.0913
 1036SOL     OW 3106   5.505   1.727   4.586  0.1412  0.0299 -0.3653
 1036SOL    HW1 3107   5.544   1.763   4.506  1.9219  0.9366  0.8375
 1036SOL    HW2 3108   5.514   1.632   4.576  0.7996  0.1445 -1.0369
 1037SOL     OW 3109   1.856   0.930   2.179  0.1963 -0.2176  0.1542
 1037SOL    HW1 3110   1.833   1.014   2.140 -0.1316 -0.8724 -1.1502
 1037SOL    HW2 3111   1.951   0.933   2.191  0.1172  0.5226  0.5920
 1038SOL     OW 3112   5.946   3.041   1.567 -0.1354 -0.2491 -0.2018
 1038SOL    HW1 3113   5.884   3.112   1.551  0.5685  1.0396  2.2874
 1038SOL    HW2 3114   6.019   3.083   1.613  0.7615 -2.4071  0.4532
 1039SOL     OW 3115   0.239   0.911   3.656  0.0276  0.4090 -0.1449
 1039SOL    HW1 3116   0.167   0.904   3.719  1.3852 -0.1008  1.4221
 1039SOL    HW2 3117   0.287   0.989   3.682  0.4240  0.3812 -0.7665
 1040SOL     OW 3118   5.804   3.583   3.703  0.4905 -0.3394 -0.7208
 1040SOL    HW1 3119   5.762   3.666   3.679 -1.5892 -1.6805 -2.0852
 1040SOL    HW2 3120   5.731   3.522   3.713  1.9408 -1.9551  0.5941
 1041SOL     OW 3121   0.724   2.702   2.299 -0.2696 -0.2289 -0.2024
 1041SOL    HW1 3122   0.702   2.636   2.364 -2.1420 -0.2155 -0.7609
 1041SOL    HW2 3123   0.717   2.657   2.215  0.7164  0.1057 -0.4725
 1042SOL     OW 3124   1.539   3.805   3.340 -0.5185  0.4068  0.4073
 1042SOL    HW1 3125   1.614   3.824   3.284  0.0944 -2.2031  0.2384
 1042SOL    HW2 3126   1.564   3.840   3.426  0.3084  0.7596  0.0298
 1043SOL     OW 3127   0.718   2.423   1.726 -0.2138 -0.3074  0.3802
 1043SOL    HW1 3128   0.800   2.380   1.701 -0.2229 -0.9030  1.3143
 1043SOL    HW2 3129   0.684   2.459   1.645  0.3228 -1.1807 -0.2547
 1044SOL     OW 3130   0.896   3.455   4.697  0.5309  0.5357  0.3030
 1044SOL    HW1 3131   0.967   3.519   4.684  0.2208  0.6351 -1.1276
 1044SOL    HW2 3132   0.845   3.460   4.616  0.4258 -1.4439  0.2125
 1045SOL     OW 3133   4.648   0.664   1.669 -0.0375 -0.0104 -0.7365
 1045SOL    HW1 3134   4.672   0.742   1.619 -0.4599  0.3996 -0.3190
 1045SOL    HW2 3135   4.722   0.648   1.727  0.5235 -0.5872 -1.6029
 1046SOL     OW 3136   1.472   0.384   3.165  0.3310  0.1285 -0.0048
 1046SOL    HW1 3137   1.465   0.419   3.076  0.1810  0.5986  0.1925
 1046SOL    HW2 3138   1.566   0.384   3.184  0.5470 -1.6182 -0.8141
 1047SOL     OW 3139   4.996   3.429   3.885  0.0618  0.4234  0.1213
 1047SOL    HW1 3140   5.060   3.370   3.923  1.4264  1.4910 -0.4349
 1047SOL    HW2 3141   4.992   3.404   3.792 -0.0071  0.6453  0.0627
 1048SOL     OW 3142   1.583   3.036   2.802 -0.0469 -0.2436 -0.4491
 1048SOL    HW1 3143   1.573   2.995   2.888 -0.4379  0.4562 -0.1485
 1048SOL    HW2 3144   1.676   3.056   2.796 -0.3635  2.2201  1.0428
 1049SOL     OW 3145   4.291   2.217   2.902 -0.4728 -0.0616  0.1752
 1049SOL    HW1 3146   4.264   2.142   2.956 -3.1446  0.4031 -0.3461
 1049SOL    HW2 3147   4.266   2.294   2.954 -0.0973  0.4356 -0.3666
 1050SOL     OW 3148   2.337   2.999   2.499  0.4306 -0.0521  0.0411
 1050SOL    HW1 3149   2.292   2.994   2.584 -1.2724  1.9504 -0.6565
 1050SOL    HW2 3150   2.268   2.986   2.434  0.9410  2.1035 -1.0518
 1051SOL     OW 3151   0.835   3.240   5.074 -0.1932 -0.2215  0.0391
 1051SOL    HW1 3152   0.928   3.236   5.054 -0.2383  1.5320 -0.6727
 1051SOL    HW2 3153   0.818   3.160   5.125  1.7197 -0.4670  0.3636
 1052SOL     OW 3154   0.437   3.595   1.433 -0.5099 -0.7146  0.2265
 1052SOL    HW1 3155   0.404   3.682   1.409 -0.5469 -1.1164 -1.2988
 1052SOL    HW2 3156   0.532   3.603   1.429 -0.3817 -0.0078  2.9623
 1053SOL     OW 3157   4.697   5.330   2.618  0.2340  0.0852 -0.4769
 1053SOL    HW1 3158   4.640   5.305   2.545 -0.2940  0.3811 -0.1752
 1053SOL    HW2 3159   4.636   5.352   2.689  0.7373 -0.1357  0.0313
 1054SOL     OW 3160   0.453   0.447   4.189  0.7478  0.2682 -0.3962
 1054SOL    HW1 3161   0.531   0.391   4.187 -0.1724 -1.1287  0.9407
 1054SOL    HW2 3162   0.419   0.438   4.278 -1.2867  0.3467 -1.1139
 1055SOL     OW 3163   3.262   2.262   2.545  0.1055 -0.4469  0.8023
 1055SOL    HW1 3164   3.278   2.306   2.628 -1.3953 -0.5402  1.1662
 1055SOL    HW2 3165   3.262   2.332   2.480  0.3346 -0.2557  1.0089
 1056SOL     OW 3166   2.670   2.151   3.611 -0.0357 -0.2837 -0.1831
 1056SOL    HW1 3167   2.634   2.237   3.632  3.2353  1.2065 -0.0092
 1056SOL    HW2 3168   2.746   2.170   3.557  0.7176 -3.0991 -0.2360
 1057SOL     OW 3169   0.692   4.997   1.858  0.2126  0.2050  0.0775
 1057SOL    HW1 3170   0.684   5.041   1.943  3.3689  1.6341 -0.2143
 1057SOL    HW2 3171   0.674   5.066   1.794  0.0155 -0.2963 -0.4151
 1058SOL     OW 3172   5.250   1.819   4.487  0.2028  0.1238 -0.0675
 1058SOL    HW1 3173   5.269   1.890   4.427  0.1691 -0.0455 -0.2787
 1058SOL    HW2 3174   5.335   1.794   4.523  0.5215 -1.1714 -1.6088
 1059SOL     OW 3175   0.126   1.262   0.379  0.0425 -0.1949 -0.1491
 1059SOL    HW1 3176   0.150   1.242   0.470 -0.1238  0.2635 -0.0013
 1059SOL    HW2 3177   0.166   1.347   0.362  0.6162 -0.5670 -0.7231
 1060SOL     OW 3178   2.872   3.238   2.093  0.0502 -0.1536  0.2954
 1060SOL    HW1 3179   2.880   3.144   2.105  0.6669 -0.1968 -0.4074
 1060SOL    HW2 3180   2.777   3.253   2.086 -0.0909 -0.6253  1.0537
 1061SOL     OW 3181   0.437   1.123   2.955 -0.2163 -0.1751 -0.0352
 1061SOL    HW1 3182   0.411   1.202   3.003  0.0627  0.3041 -0.6648
 1061SOL    HW2 3183   0.522   1.100   2.992 -0.1134  0.0526 -0.1279
 1062SOL     OW 3184   5.152   2.960   2.870 -0.1770 -0.2021 -0.1269
 1062SOL    HW1 3185   5.187   3.022   2.806 -2.1382  0.8356 -0.2473
 1062SOL    HW2 3186   5.106   2.895   2.817 -0.4885 -0.2144  0.1575
 1063SOL     OW 3187   0.099   4.595   1.851  0.4218 -0.2422  0.0724
 1063SOL    HW1 3188   0.043   4.606   1.928  0.3183  1.8233 -0.2481
 1063SOL    HW2 3189   0.176   4.649   1.870  0.2474  0.5620 -1.4000
 1064SOL     OW 3190   5.325   1.559   1.434  0.1689  0.2254  0.3263
 1064SOL    HW1 3191   5.313   1.468   1.461  0.2827  0.0340 -0.2624
 1064SOL    HW2 3192   5.241   1.584   1.394 -1.0619  1.4156  3.3280
 1065SOL     OW 3193   2.316   2.826   2.993 -0.0038  0.2408 -0.5038
 1065SOL    HW1 3194   2.251   2.814   3.063 -0.8175 -2.5143 -1.6166
 1065SOL    HW2 3195   2.395   2.855   3.039 -0.5815 -1.1913  1.5679
 1066SOL     OW 3196   2.616   3.843   2.613 -0.4019 -0.1017 -0.1471
 1066SOL    HW1 3197   2.592   3.753   2.590  1.2573 -0.5815 -0.1205
 1066SOL    HW2 3198   2.672   3.873   2.541  0.0711  0.4569  0.4399
 1067SOL     OW 3199   3.224   1.849   2.317 -0.2698  0.0409  0.4504
 1067SOL    HW1 3200   3.216   1.931   2.269 -0.3963  0.1887  0.7199
 1067SOL    HW2 3201   3.200   1.781   2.253  0.6188  0.1466  0.0031
 1068SOL     OW 3202   5.917   5.001   1.418  0.1322 -0.3467  0.3198
 1068SOL    HW1 3203   5.896   5.024   1.327 -0.8671  0.1863  0.6723
 1068SOL    HW2 3204   5.863   4.925   1.437 -0.4638  0.1795  0.7879
 1069SOL     OW 3205   1.262   2.282   2.414 -0.5428 -0.0310 -0.1075
 1069SOL    HW1 3206   1.345   2.326   2.396 -0.4960 -0.7382 -1.7927
 1069SOL    HW2 3207   1.282   2.223   2.486  0.3334  0.0454 -0.2695
 1070SOL     OW 3208   4.511   2.593   0.536 -0.3242 -0.2139 -0.2421
 1070SOL    HW1 3209   4.570   2.638   0.475  1.3660 -1.9348  0.0272
 1070SOL    HW2 3210   4.556   2.598   0.620  0.8126 -3.6698 -0.4737
 1071SOL     OW 3211   1.359   3.357   5.308 -0.2714  0.1602 -0.6318
 1071SOL    HW1 3212   1.343   3.412   5.385 -0.8993  0.4796 -0.9826
 1071SOL    HW2 3213   1.293   3.288   5.313  1.9952 -2.0709  1.1295
 1072SOL     OW 3214   2.796   1.678   1.708 -0.3236  0.3702  0.2147
 1072SOL    HW1 3215   2.712   1.654   1.749 -0.5316  0.6069 -0.0758
 1072SOL    HW2 3216   2.813   1.607   1.647 -1.3841  1.3669 -1.3052
 1073SOL     OW 3217   0.663   1.974   2.497 -0.3369 -0.1042  0.2263
 1073SOL    HW1 3218   0.601   2.041   2.527 -0.2683  0.4463 -0.7821
 1073SOL    HW2 3219   0.745   2.022   2.485 -0.3569 -0.2963 -0.7653
 1074SOL     OW 3220   0.133   1.977   3.686  0.1247  0.2795  0.5467
 1074SOL    HW1 3221   0.190   2.046   3.719 -1.4600  1.3129  1.1632
 1074SOL    HW2 3222   0.177   1.948   3.605  0.5606  2.3551 -0.0250
 1075SOL     OW 3223   4.015   1.421   2.396 -0.0454  0.2641  0.2926
 1075SOL    HW1 3224   4.071   1.421   2.473 -0.8616  2.0886  0.9278
 1075SOL    HW2 3225   3.995   1.329   2.381  1.1052 -0.2138  1.5071
 1076SOL     OW 3226   4.920   5.500   2.920 -0.3665 -0.2084  0.1547
 1076SOL    HW1 3227   5.012   5.526   2.911 -0.4820 -0.1265 -0.8984
 1076SOL    HW2 3228   4.896   5.527   3.009  0.0834  1.5118 -0.2225
 1077SOL     OW 3229   0.423   1.389   3.107  0.2068  0.2217 -0.2891
 1077SOL    HW1 3230   0.396   1.479   3.089 -1.7380 -0.3907 -0.7534
 1077SOL    HW2 3231   0.375   1.365   3.186  0.8988 -0.3363 -0.0269
 1078SOL     OW 3232   2.452   5.582   0.672 -0.0548  0.6356  0.3575
 1078SOL    HW1 3233   2.402   5.637   0.612 -0.1215  1.7587  1.4004
 1078SOL    HW2 3234   2.467   5.501   0.624 -2.1340  0.5898 -0.3010
 1079SOL     OW 3235   3.054   0.384   4.566 -0.2984  0.0232 -0.0820
 1079SOL    HW1 3236   3.023   0.424   4.484 -0.3230 -1.3075 -0.7514
 1079SOL    HW2 3237   3.069   0.458   4.624 -1.4084  0.9281 -0.8966
 1080SOL     OW 3238   5.811   4.968   4.086  0.0473  0.5271  0.2378
 1080SOL    HW1 3239   5.831   5.033   4.153  1.4954  1.1653 -0.7731
 1080SOL    HW2 3240   5.785   5.019   4.009 -1.5059 -0.1952  0.2361
 1081SOL     OW 3241   5.696   2.526   2.836  0.0517  0.3702 -0.1041
 1081SOL    HW1 3242   5.748   2.467   2.891  0.2498 -0.3561 -1.0445
 1081SOL    HW2 3243   5.607   2.493   2.842  0.3803 -0.9988 -1.7909
 1082SOL     OW 3244   2.703   2.320   2.988 -0.7277 -0.3145 -0.3235
 1082SOL    HW1 3245   2.691   2.232   3.024 -1.2923  0.3549  1.2116
 1082SOL    HW2 3246   2.796   2.326   2.969 -0.5411 -0.9658  0.3314
 1083SOL     OW 3247   5.251   3.814   1.201  0.4922 -0.0526 -0.6291
 1083SOL    HW1 3248   5.296   3.869   1.137 -1.1807  0.5085 -1.3716
 1083SOL    HW2 3249   5.200   3.753   1.148 -0.5285  0.0879  0.1633
 1084SOL     OW 3250   0.709   1.702   2.555 -0.3604  0.1191  0.0224
 1084SOL    HW1 3251   0.696   1.796   2.539  0.3066  0.4422  1.2634
 1084SOL    HW2 3252   0.746   1.698   2.643 -0.6861 -1.3402  0.1109
 1085SOL     OW 3253   5.899   0.509   3.963  0.1626 -0.1750  0.2824
 1085SOL    HW1 3254   5.881   0.417   3.944  1.7709 -0.2664 -1.0343
 1085SOL    HW2 3255   5.928   0.546   3.880  0.1531  1.3754  0.9238
 1086SOL     OW 3256   1.587   4.201   0.057 -0.1183  0.1880 -0.5250
 1086SOL    HW1 3257   1.512   4.257   0.035 -0.2640 -0.3660 -1.5193
 1086SOL    HW2 3258   1.572   4.120   0.008 -0.1536 -0.9349  1.2650
 1087SOL     OW 3259   0.946   5.067   2.857 -0.6768 -0.4906 -0.1405
 1087SOL    HW1 3260   0.950   5.090   2.764 -0.9199 -0.6185 -0.1836
 1087SOL    HW2 3261   0.985   4.979   2.861  0.3174 -0.0644  0.0334
 1088SOL     OW 3262   0.088   0.082   4.153  0.1507 -0.9665 -0.3585
 1088SOL    HW1 3263   0.156   0.132   4.107 -0.4203  0.1471 -0.0060
 1088SOL    HW2 3264   0.060   0.016   4.089  1.2901 -1.1994 -0.6405
 1089SOL     OW 3265   5.124   1.908   2.682 -0.1447  0.2945  0.3836
 1089SOL    HW1 3266   5.101   1.985   2.630 -0.4400  1.1110  1.6745
 1089SOL    HW2 3267   5.219   1.902   2.676 -0.2030  0.1757 -0.5154
 1090SOL     OW 3268   5.120   3.741   5.952  0.5144 -0.0432 -0.2877
 1090SOL    HW1 3269   5.131   3.646   5.947 -1.9872 -0.3906 -0.8143
 1090SOL    HW2 3270   5.179   3.776   5.887 -0.6125 -1.5083 -2.2129
 1091SOL     OW 3271   4.002   5.694   4.483  0.2705 -0.1798  0.4586
 1091SOL    HW1 3272   4.097   5.697   4.500  0.4238  0.9572 -0.5016
 1091SOL    HW2 3273   3.975   5.786   4.480 -0.8265 -0.4856  0.4516
 1092SOL     OW 3274   2.295   2.576   1.325  0.4071  0.2582 -0.1673
 1092SOL    HW1 3275   2.380   2.600   1.361  0.4218 -0.1498  0.0766
 1092SOL    HW2 3276   2.243   2.656   1.329  0.7778  0.5097 -0.3191
 1093SOL     OW 3277   3.047   4.841   2.049  0.4052  0.4492  0.4322
 1093SOL    HW1 3278   2.983   4.830   2.120 -1.3299  0.6928 -1.0254
 1093SOL    HW2 3279   3.033   4.931   2.019  1.4987  0.5264  0.1250
 1094SOL     OW 3280   5.995   1.860   4.753 -0.3409 -0.3111 -0.7203
 1094SOL    HW1 3281   6.000   1.938   4.698  1.8449  0.7345  0.8048
 1094SOL    HW2 3282   5.961   1.892   4.837  1.1264 -0.8019  0.1151
 1095SOL     OW 3283   2.519   3.300   5.313  0.4753 -0.4494  0.0630
 1095SOL    HW1 3284   2.522   3.262   5.401 -0.4524  1.2770  0.8719
 1095SOL    HW2 3285   2.438   3.267   5.275 -0.0760  0.3034  0.5736
 1096SOL     OW 3286   0.074   0.871   3.906  0.1004 -0.2618 -0.2508
 1096SOL    HW1 3287   0.031   0.863   3.991 -0.4246  1.2310 -0.3444
 1096SOL    HW2 3288   0.007   0.845   3.843 -0.1513  0.4672 -0.2985
 1097SOL     OW 3289   4.862   4.937   2.938  0.1915 -0.6622  0.0963
 1097SOL    HW1 3290   4.845   4.910   2.848 -0.2296 -0.4914  0.1254
 1097SOL    HW2 3291   4.839   5.030   2.941 -0.0519 -0.7286  0.4442
 1098SOL     OW 3292   1.136   3.997   1.626 -0.5166  0.4143  0.5239
 1098SOL    HW1 3293   1.119   4.076   1.678 -0.8358  0.2685  0.6424
 1098SOL    HW2 3294   1.075   3.932   1.660  1.8675 -0.8992  2.6370
 1099SOL     OW 3295   5.657   4.069   4.048  0.1726 -0.1007  0.2243
 1099SOL    HW1 3296   5.736   4.033   4.087  0.9833 -0.6982 -1.8643
 1099SOL    HW2 3297   5.614   3.995   4.005  1.0537  0.9853 -2.7988
 1100SOL     OW 3298   0.367   1.645   3.083  0.3137 -0.0065  0.4981
 1100SOL    HW1 3299   0.274   1.628   3.099  0.2654 -1.4951 -0.9773
 1100SOL    HW2 3300   0.368   1.719   3.023 -0.0763 -1.0987 -0.9282
 1101SOL     OW 3301   1.859   4.628   0.292 -0.4536  0.0393  0.0608
 1101SOL    HW1 3302   1.934   4.581   0.256 -0.3448 -0.2825  0.6815
 1101SOL    HW2 3303   1.869   4.717   0.259  0.7632  0.2461  0.9087
 1102SOL     OW 3304   3.015   3.921   4.215  0.2700  0.1140  0.2856
 1102SOL    HW1 3305   3.085   3.869   4.176 -0.5012  0.5798 -1.8821
 1102SOL    HW2 3306   2.936   3.868   4.201 -0.5280  1.7630 -1.9709
 1103SOL     OW 3307   2.102   3.677   1.215  0.3855 -0.0986 -0.3149
 1103SOL    HW1 3308   2.113   3.608   1.149  0.0837  0.7146 -1.2485
 1103SOL    HW2 3309   2.189   3.692   1.250  0.8177  0.4256 -1.5566
 1104SOL     OW 3310   4.818   1.002   2.840 -0.5333  0.2466 -0.2901
 1104SOL    HW1 3311   4.840   1.018   2.932 -0.4337 -0.6200 -0.1557
 1104SOL    HW2 3312   4.876   1.061   2.791 -1.0061  1.1501  0.2135
 1105SOL     OW 3313   2.619   1.152   4.239  0.4500  0.1048 -0.4222
 1105SOL    HW1 3314   2.541   1.203   4.260  0.0829 -0.2306 -0.9557
 1105SOL    HW2 3315   2.663   1.203   4.171  2.9856  2.5330  2.6951
 1106SOL     OW 3316   2.348   1.027   0.063 -0.1701  0.2122 -0.1938
 1106SOL    HW1 3317   2.359   0.933   0.071 -0.6349 -0.0478 -2.2311
 1106SOL    HW2 3318   2.278   1.039  -0.000  1.0485  1.9191 -1.3302
 1107SOL     OW 3319   5.859   4.879   0.917  0.1895  0.0266  0.2468
 1107SOL    HW1 3320   5.836   4.838   1.000 -0.5905  0.1227  0.0894
 1107SOL    HW2 3321   5.790   4.851   0.857  0.5580  0.2372 -0.2817
 1108SOL     OW 3322   5.465   1.478   1.685  0.4996 -0.4073  0.2279
 1108SOL    HW1 3323   5.463   1.418   1.610  0.6481 -0.0107 -0.0982
 1108SOL    HW2 3324   5.491   1.562   1.647 -2.5298  0.6254  0.1667
 1109SOL     OW 3325   0.049   3.256   1.747  0.9191 -0.4355  0.1294
 1109SOL    HW1 3326   0.096   3.287   1.670 -1.0296 -1.8905 -1.7838
 1109SOL    HW2 3327  -0.039   3.293   1.739  0.9799  0.3828  2.3712
 1110SOL     OW 3328   1.105   2.925   5.966  0.2399  0.2203 -0.1811
 1110SOL    HW1 3329   1.034   2.940   5.903 -0.1683 -0.2459  0.1563
 1110SOL    HW2 3330   1.107   3.005   6.020 -0.4552 -0.0176  0.2106
 1111SOL     OW 3331   1.400   3.718   3.631  0.2503 -0.0924  0.2118
 1111SOL    HW1 3332   1.390   3.797   3.685 -0.9847 -1.0657  1.4988
 1111SOL    HW2 3333   1.489   3.688   3.648 -0.3928 -0.8678  2.4658
 1112SOL     OW 3334   0.851   1.831   4.777 -0.8616 -0.1677 -0.0958
 1112SOL    HW1 3335   0.919   1.885   4.740 -1.4236 -0.5448 -1.7641
 1112SOL    HW2 3336   0.775   1.844   4.719 -1.8427 -0.6484  1.0276
 1113SOL     OW 3337   2.981   0.359   5.900 -0.0716 -0.5136 -0.4768
 1113SOL    HW1 3338   3.050   0.344   5.965  0.4425 -0.2619 -0.9551
 1113SOL    HW2 3339   2.902   0.369   5.952  0.6366  1.7102  0.2785
 1114SOL     OW 3340   0.927   3.024   3.335 -0.7213  0.5959  0.4186
 1114SOL    HW1 3341   0.976   3.065   3.405 -1.4720  0.4151  1.0677
 1114SOL    HW2 3342   0.985   3.029   3.259  0.9530 -1.0044  1.5042
 1115SOL     OW 3343   2.575   1.533   3.812  0.3282 -0.4405  0.1370
 1115SOL    HW1 3344   2.601   1.624   3.797  1.1569 -0.7673 -0.4871
 1115SOL    HW2 3345   2.653   1.492   3.850 -0.3889 -0.6417  1.4736
 1116SOL     OW 3346   0.973   3.939   4.691 -0.2631  0.0291  0.0797
 1116SOL    HW1 3347   1.021   4.021   4.688  1.2619 -0.8463 -0.7778
 1116SOL    HW2 3348   1.016   3.889   4.761 -2.2160  0.5223  1.7301
 1117SOL     OW 3349   2.333   1.420   0.105  0.1572  0.2247 -0.4383
 1117SOL    HW1 3350   2.238   1.407   0.108  0.2875 -0.5099  0.7803
 1117SOL    HW2 3351   2.349   1.454   0.017 -1.2594  0.5732 -0.5861
 1118SOL     OW 3352   1.900   0.317   2.454 -0.3689  0.6856  0.0720
 1118SOL    HW1 3353   1.845   0.392   2.433 -1.2376  0.1460  0.3703
 1118SOL    HW2 3354   1.974   0.324   2.395 -0.4709  1.7468  0.0594
 1119SOL     OW 3355   1.944   3.697   4.738 -0.1802  0.1803 -0.2776
 1119SOL    HW1 3356   2.000   3.741   4.674  2.4545 -1.3716  0.8159
 1119SOL    HW2 3357   1.913   3.767   4.795 -1.7637  1.4521 -2.5299
 1120SOL     OW 3358   0.427   3.238   3.675 -0.1517  0.1065  0.6422
 1120SOL    HW1 3359   0.402   3.160   3.625 -1.0067  1.7447 -1.6277
 1120SOL    HW2 3360   0.520   3.250   3.655 -0.4853  0.7414 -0.5907
 1121SOL     OW 3361   2.545   1.161   4.904  0.2577 -0.5392 -0.1282
 1121SOL    HW1 3362   2.607   1.093   4.929  1.3331  0.2326 -0.6438
 1121SOL    HW2 3363   2.533   1.213   4.984  0.0973 -0.8169  0.0294
 1122SOL     OW 3364   0.799   2.426   5.651 -0.7270 -0.5199  0.3026
 1122SOL    HW1 3365   0.726   2.483   5.676 -1.0984 -0.5895 -0.5905
 1122SOL    HW2 3366   0.877   2.479   5.666 -1.1064  0.6336 -1.4710
 1123SOL     OW 3367   2.868   1.421   1.994  0.1067 -0.1922 -0.2005
 1123SOL    HW1 3368   2.939   1.469   1.951 -0.6218 -0.0522 -1.2793
 1123SOL    HW2 3369   2.866   1.455   2.083  2.2692 -1.1438  0.2733
 1124SOL     OW 3370   5.163   4.950   3.167  0.2402  0.4969 -0.3721
 1124SOL    HW1 3371   5.216   4.873   3.151  1.3378  1.0260  0.6042
 1124SOL    HW2 3372   5.135   4.942   3.259 -0.1082  0.9808 -0.4299
 1125SOL     OW 3373   5.424   2.571   0.490  0.7091 -0.5665  0.1133
 1125SOL    HW1 3374   5.363   2.502   0.517 -0.2293  0.5987  1.0582
 1125SOL    HW2 3375   5.509   2.526   0.485 -0.0748 -2.0687 -0.5832
 1126SOL     OW 3376   0.228   2.992   0.831 -0.3969 -0.1591 -0.4514
 1126SOL    HW1 3377   0.261   2.991   0.741 -0.6790 -3.3308 -0.6425
 1126SOL    HW2 3378   0.134   2.972   0.822 -0.5023 -0.1636  0.5198
 1127SOL     OW 3379   4.416   0.423   3.215  0.2336 -0.2107  0.3568
 1127SOL    HW1 3380   4.480   0.374   3.267  1.0558  0.9505  0.4955
 1127SOL    HW2 3381   4.419   0.383   3.128  1.2800 -0.0795  0.3198
 1128SOL     OW 3382   0.170   3.884   0.563  0.2570  0.3328  0.1455
 1128SOL    HW1 3383   0.099   3.893   0.627 -0.2223 -1.0919 -0.1515
 1128SOL    HW2 3384   0.237   3.945   0.593 -0.6883  0.9904  0.9904
 1129SOL     OW 3385   2.947   3.408   3.895 -0.7954  0.1980 -0.0349
 1129SOL    HW1 3386   2.996   3.490   3.881  0.2985 -0.5917 -1.0512
 1129SOL    HW2 3387   2.859   3.428   3.862 -0.7470  1.1775  0.3784
 1130SOL     OW 3388   0.907   1.145   3.047 -0.4597  0.2771 -0.1643
 1130SOL    HW1 3389   0.964   1.067   3.046 -0.6371  0.1357  0.5433
 1130SOL    HW2 3390   0.961   1.214   3.010 -0.4065 -0.2501 -1.1242
 1131SOL     OW 3391   4.755   0.696   4.842  0.3704 -0.4549  0.9430
 1131SOL    HW1 3392   4.836   0.743   4.858  0.0408  1.3341 -2.0224
 1131SOL    HW2 3393   4.687   0.749   4.884  0.1217  1.3487 -1.5521
 1132SOL     OW 3394   2.146   3.564   4.261 -0.2363  0.0855  0.2705
 1132SOL    HW1 3395   2.190   3.638   4.303  0.2174  0.7643 -1.3422
 1132SOL    HW2 3396   2.210   3.493   4.266 -0.9943 -0.5212  2.5928
 1133SOL     OW 3397   0.818   5.704   5.711  0.2999 -0.2011  0.2389
 1133SOL    HW1 3398   0.740   5.690   5.765  0.8761 -0.6432  0.9711
 1133SOL    HW2 3399   0.821   5.799   5.699  1.9884  0.3678  3.8595
 1134SOL     OW 3400   0.648   3.152   5.689 -0.6411 -0.0780  0.2338
 1134SOL    HW1 3401   0.580   3.166   5.755  0.3050  1.1354  0.9720
 1134SOL    HW2 3402   0.611   3.190   5.609 -0.3814  1.7309  0.9172
 1135SOL     OW 3403   2.460   5.795   1.329  0.0383  0.7465 -0.4101
 1135SOL    HW1 3404   2.417   5.861   1.275  1.0016  1.4272 -0.3570
 1135SOL    HW2 3405   2.512   5.845   1.392  0.0403 -0.0550  0.2437
 1136SOL     OW 3406   4.395   2.786   3.415 -0.5532 -0.1521  0.8043
 1136SOL    HW1 3407   4.373   2.783   3.322 -1.8658  0.1384  1.0876
 1136SOL    HW2 3408   4.346   2.861   3.449 -2.4548 -1.9463  2.2735
 1137SOL     OW 3409   1.486   1.393   3.354  0.4415  0.0181 -0.0882
 1137SOL    HW1 3410   1.446   1.328   3.295  0.0534  1.3219 -1.3186
 1137SOL    HW2 3411   1.577   1.366   3.361 -0.0092 -1.4565  0.5665
 1138SOL     OW 3412   1.252   3.873   5.432  0.4891  0.4563  0.0200
 1138SOL    HW1 3413   1.261   3.778   5.423 -1.9755  0.3190 -2.0745
 1138SOL    HW2 3414   1.190   3.886   5.503 -0.8437  0.3684 -1.1009
 1139SOL     OW 3415   5.808   1.520   3.308 -0.1339  0.2555  0.1804
 1139SOL    HW1 3416   5.865   1.452   3.345 -2.3632 -1.7115  0.1828
 1139SOL    HW2 3417   5.800   1.585   3.379  2.9799  1.2714 -0.2423
 1140SOL     OW 3418   5.337   2.859   5.539 -0.6605  0.2334  0.3040
 1140SOL    HW1 3419   5.334   2.871   5.634  0.3131 -0.1299  0.3946
 1140SOL    HW2 3420   5.278   2.786   5.522  2.5366 -2.8543  1.2310
 1141SOL     OW 3421   1.136   1.744   0.186 -0.0974 -0.3001  0.4465
 1141SOL    HW1 3422   1.154   1.650   0.193  0.0505 -0.4073 -1.0466
 1141SOL    HW2 3423   1.194   1.785   0.250 -1.0768 -1.2951  2.0357
 1142SOL     OW 3424   0.882   1.266   0.582  0.6074  0.1464  0.1665
 1142SOL    HW1 3425   0.812   1.325   0.612 -0.8626 -1.8318  0.7904
 1142SOL    HW2 3426   0.873   1.266   0.486 -0.8302 -0.7048  0.2708
 1143SOL     OW 3427   0.232   4.072   4.572 -0.3200 -0.6579  0.4087
 1143SOL    HW1 3428   0.163   4.044   4.512 -0.7347 -3.4276  1.9839
 1143SOL    HW2 3429   0.278   3.991   4.594  0.6081  0.4305  2.8083
 1144SOL     OW 3430   1.181   2.869   4.175  0.1622 -0.0199  0.2394
 1144SOL    HW1 3431   1.275   2.886   4.182 -0.0888  2.0972 -0.6892
 1144SOL    HW2 3432   1.156   2.841   4.263  1.6310 -0.5804  0.5221
 1145SOL     OW 3433   5.652   3.265   5.873  0.0722 -0.1744 -0.8422
 1145SOL    HW1 3434   5.728   3.307   5.834 -0.5134  0.7784 -0.9966
 1145SOL    HW2 3435   5.686   3.221   5.952  0.9683 -0.7599 -1.5384
 1146SOL     OW 3436   2.298   1.485   3.838  0.4908 -0.6815 -0.1167
 1146SOL    HW1 3437   2.379   1.529   3.809  0.3285  0.5154  1.1459
 1146SOL    HW2 3438   2.237   1.557   3.856 -0.7321 -1.5503 -0.6310
 1147SOL     OW 3439   1.037   2.943   5.518 -0.0820  0.0005  0.2158
 1147SOL    HW1 3440   0.960   2.887   5.520 -0.5612  0.6296 -0.1481
 1147SOL    HW2 3441   1.002   3.032   5.519  0.6004  0.2973 -0.6323
 1148SOL     OW 3442   2.761   0.325   3.032  0.0978  0.8129 -0.2961
 1148SOL    HW1 3443   2.677   0.281   3.024  0.4292  0.0819  0.1784
 1148SOL    HW2 3444   2.750   0.406   2.982 -1.1089  1.0622  0.3146
 1149SOL     OW 3445   1.095   3.807   4.887 -0.1050 -0.1950  0.3852
 1149SOL    HW1 3446   1.049   3.787   4.969 -0.8433 -0.9827 -0.2003
 1149SOL    HW2 3447   1.081   3.730   4.832 -0.6244  0.7827 -0.9081
 1150SOL     OW 3448   0.064   3.662   5.217  0.2750 -0.2114  0.0763
 1150SOL    HW1 3449   0.159   3.664   5.206  0.3608 -0.5351  0.7050
 1150SOL    HW2 3450   0.038   3.754   5.214  0.4819 -0.1815 -1.0969
 1151SOL     OW 3451   5.984   3.142   4.276  0.0440 -0.2225 -0.1856
 1151SOL    HW1 3452   6.010   3.050   4.273 -0.2878 -0.3241 -0.1188
 1151SOL    HW2 3453   5.899   3.140   4.321 -0.2851  0.0449 -0.7818
 1152SOL     OW 3454   1.660   5.299   3.938 -0.2170  0.1679  0.0421
 1152SOL    HW1 3455   1.572   5.335   3.923 -0.6458 -0.8976 -0.1209
 1152SOL    HW2 3456   1.667   5.292   4.033 -0.4900 -0.1433  0.0434
 1153SOL     OW 3457   3.210   1.838   1.311 -0.1262 -0.1602  0.3569
 1153SOL    HW1 3458   3.118   1.813   1.322 -0.0251 -1.3327 -1.1080
 1153SOL    HW2 3459   3.234   1.804   1.225  1.4594  0.8622  0.3474
 1154SOL     OW 3460   4.711   1.841   4.289  0.5732  0.0049  0.5883
 1154SOL    HW1 3461   4.784   1.794   4.329  0.9238  0.6903  0.7779
 1154SOL    HW2 3462   4.739   1.858   4.199 -0.1367 -1.3673  0.0801
 1155SOL     OW 3463   5.126   4.516   4.731  0.1696 -0.0513 -0.2736
 1155SOL    HW1 3464   5.179   4.458   4.676 -0.7858 -1.0661 -0.1805
 1155SOL    HW2 3465   5.074   4.456   4.785  1.6473  0.8762  2.3510
 1156SOL     OW 3466   4.218   2.099   4.634 -0.0376 -0.3218  0.0195
 1156SOL    HW1 3467   4.296   2.112   4.688 -0.0059  1.1573 -0.3511
 1156SOL    HW2 3468   4.245   2.035   4.568  1.0009  0.4594 -0.3418
 1157SOL     OW 3469   3.384   1.742   3.347 -0.5001  0.3392 -0.2923
 1157SOL    HW1 3470   3.347   1.745   3.435  0.4783  1.5214  0.1013
 1157SOL    HW2 3471   3.309   1.724   3.290 -1.1642 -0.3010  0.7508
 1158SOL     OW 3472   0.566   5.644   5.811  0.1797  0.2108 -0.3563
 1158SOL    HW1 3473   0.518   5.623   5.891 -1.6647  5.1567  0.1897
 1158SOL    HW2 3474   0.500   5.683   5.754  1.7397 -1.8438 -3.8500
 1159SOL     OW 3475   4.295   2.096   5.714  0.7264 -0.0215  0.8113
 1159SOL    HW1 3476   4.361   2.091   5.645  0.7715  0.2915  0.8301
 1159SOL    HW2 3477   4.341   2.133   5.789  1.1719 -2.1102  1.6225
 1160SOL     OW 3478   2.149   4.049   5.666  0.0590 -0.4389  0.2562
 1160SOL    HW1 3479   2.193   4.039   5.582  1.0882 -0.1532  0.7513
 1160SOL    HW2 3480   2.076   4.109   5.648  1.8637  1.8401  0.0842
 1161SOL     OW 3481   0.500   1.076   5.425 -0.0950 -0.0787  0.5609
 1161SOL    HW1 3482   0.563   1.042   5.489 -1.1361 -0.3611  1.4793
 1161SOL    HW2 3483   0.537   1.160   5.397  0.6596 -0.2157  1.1023
 1162SOL     OW 3484   5.734   2.952   1.395 -0.3904  0.5579 -0.6415
 1162SOL    HW1 3485   5.723   3.046   1.406 -0.6815  0.5300 -0.6693
 1162SOL    HW2 3486   5.770   2.921   1.478 -1.3729  0.5301 -0.2156
 1163SOL     OW 3487   0.568   2.047   5.711 -1.0753 -0.7382  0.1995
 1163SOL    HW1 3488   0.621   1.993   5.770  0.8699 -0.0811 -0.8456
 1163SOL    HW2 3489   0.600   2.024   5.623 -1.1678  1.0684 -0.3441
 1164SOL     OW 3490   5.344   3.218   2.346  0.1829  0.8312  0.2405
 1164SOL    HW1 3491   5.343   3.311   2.323  0.0885  0.8842  0.4586
 1164SOL    HW2 3492   5.414   3.209   2.411 -0.0057  0.8038  0.4412
 1165SOL     OW 3493   0.780   1.983   3.630 -0.1861  0.4077 -0.0600
 1165SOL    HW1 3494   0.715   2.050   3.653 -1.0706 -0.7240  0.8664
 1165SOL    HW2 3495   0.767   1.914   3.695  0.8561 -0.5686 -0.8538
 1166SOL     OW 3496   4.223   4.334   5.646  0.0704 -0.0836 -0.4609
 1166SOL    HW1 3497   4.244   4.397   5.715  1.0552 -0.4004 -0.4616
 1166SOL    HW2 3498   4.307   4.316   5.603 -0.2465 -1.1583 -0.6630
 1167SOL     OW 3499   5.355   3.244   5.884  0.0932  0.0560  0.0131
 1167SOL    HW1 3500   5.330   3.299   5.809 -3.7229  0.4426  1.3380
 1167SOL    HW2 3501   5.445   3.270   5.904 -0.1279  2.8395 -1.9949
 1168SOL     OW 3502   0.683   3.073   4.205 -0.3107 -0.2959 -0.2607
 1168SOL    HW1 3503   0.654   3.036   4.121 -1.0138  0.8505 -0.5397
 1168SOL    HW2 3504   0.611   3.057   4.265 -0.4570  0.2553 -0.2833
 1169SOL     OW 3505   5.768   2.465   2.321 -0.4721 -0.2702 -0.3404
 1169SOL    HW1 3506   5.675   2.489   2.331 -0.2873  0.2031  0.3614
 1169SOL    HW2 3507   5.813   2.549   2.312  0.1394 -0.3293  1.7243
 1170SOL     OW 3508   1.106   1.722   3.434 -0.0491  0.4649 -0.1716
 1170SOL    HW1 3509   1.134   1.812   3.450  0.8482  0.6454 -2.3374
 1170SOL    HW2 3510   1.183   1.669   3.455  0.2423  0.4648 -1.1728
 1171SOL     OW 3511   0.787   1.971   4.399  0.3749 -0.2362 -0.3519
 1171SOL    HW1 3512   0.814   1.890   4.355 -1.7021 -1.2394  0.1196
 1171SOL    HW2 3513   0.792   2.038   4.331  0.3790 -1.1087 -1.2313
 1172SOL     OW 3514   0.143   5.927   5.370 -0.0498 -0.6945  0.0584
 1172SOL    HW1 3515   0.099   5.971   5.297  0.5026  1.9256  1.1986
 1172SOL    HW2 3516   0.228   5.902   5.335 -0.5851 -1.3955 -0.7770
 1173SOL     OW 3517   1.473   3.612   5.823 -0.2630  0.2296  0.3855
 1173SOL    HW1 3518   1.472   3.673   5.748  0.3278 -0.4748 -0.2138
 1173SOL    HW2 3519   1.407   3.646   5.883 -2.2583 -0.3351 -1.3798
 1174SOL     OW 3520   0.127   5.759   5.756  0.6121  0.0306 -0.5366
 1174SOL    HW1 3521   0.198   5.760   5.691  0.0744 -0.5087 -1.1435
 1174SOL    HW2 3522   0.051   5.726   5.708 -0.1997  1.1129 -0.0404
 1175SOL     OW 3523   3.588   2.661   1.712  0.5383  0.1691  0.2088
 1175SOL    HW1 3524   3.562   2.571   1.695  0.8792  0.3151 -1.2172
 1175SOL    HW2 3525   3.518   2.697   1.767  1.8575 -1.8179  3.5232
 1176SOL     OW 3526   1.662   0.946   0.064  0.1484  0.2938 -0.3414
 1176SOL    HW1 3527   1.702   0.896  -0.007 -0.8862 -0.4915 -0.3883
 1176SOL    HW2 3528   1.685   0.898   0.144  0.6799  0.7666 -0.1976
 1177SOL     OW 3529   2.653   5.474   0.238  0.0312  0.4892 -0.0537
 1177SOL    HW1 3530   2.714   5.401   0.224 -2.1754 -1.3936 -0.4512
 1177SOL    HW2 3531   2.671   5.534   0.165  0.9041 -0.3812 -0.5876
 1178SOL     OW 3532   4.077   0.132   0.812  0.4189  0.7406 -0.5317
 1178SOL    HW1 3533   4.048   0.221   0.833  0.5840  0.7090 -0.1583
 1178SOL    HW2 3534   4.069   0.126   0.717 -0.7613  0.7382 -0.4375
 1179SOL     OW 3535   0.530   2.370   3.954 -0.6345  0.1285  0.2644
 1179SOL    HW1 3536   0.533   2.420   3.872 -0.9204 -0.4657 -0.1165
 1179SOL    HW2 3537   0.492   2.430   4.018 -0.5989  0.5294 -0.0877
 1180SOL     OW 3538   2.324   3.902   0.341 -0.0242 -0.5521  0.1645
 1180SOL    HW1 3539   2.274   3.963   0.287  0.2613  0.1715  0.6892
 1180SOL    HW2 3540   2.258   3.845   0.381 -0.5708  0.9873  1.5838
 1181SOL     OW 3541   3.421   2.476   3.574 -0.2536  0.7190  0.0444
 1181SOL    HW1 3542   3.507   2.519   3.577  0.0327  0.1111  1.0676
 1181SOL    HW2 3543   3.400   2.458   3.666  0.0578 -2.1223 -0.3531
 1182SOL     OW 3544   2.487   4.397   4.194 -0.2573  0.4441  0.0557
 1182SOL    HW1 3545   2.409   4.447   4.171 -0.3882 -0.1180 -0.7767
 1182SOL    HW2 3546   2.520   4.364   4.110 -0.2375 -0.9600  0.5858
 1183SOL     OW 3547   5.581   5.674   1.694  0.0503 -0.2065 -0.1889
 1183SOL    HW1 3548   5.502   5.689   1.642  0.3539 -2.9568 -1.6420
 1183SOL    HW2 3549   5.550   5.634   1.775 -0.2474  1.9847  0.8392
 1184SOL     OW 3550   1.365   1.228   5.557  0.3459  0.1580 -0.3545
 1184SOL    HW1 3551   1.308   1.291   5.601 -0.9881 -0.9793 -0.3653
 1184SOL    HW2 3552   1.442   1.279   5.532 -0.1825  1.5113  0.6163
 1185SOL     OW 3553   2.503   2.645   4.667  0.4087  0.0832  0.0135
 1185SOL    HW1 3554   2.496   2.603   4.581 -1.0769 -0.9933  0.6221
 1185SOL    HW2 3555   2.597   2.645   4.686  0.7117 -0.1003 -1.3847
 1186SOL     OW 3556   2.557   2.406   3.653 -0.3347 -0.0146  0.4410
 1186SOL    HW1 3557   2.479   2.438   3.699  0.5241  0.2667  1.7320
 1186SOL    HW2 3558   2.624   2.472   3.670  0.2242 -0.2982 -0.5938
 1187SOL     OW 3559   5.485   2.882   2.507 -0.0996  0.2536  0.1071
 1187SOL    HW1 3560   5.513   2.810   2.563 -0.6224 -0.5717 -0.6625
 1187SOL    HW2 3561   5.550   2.884   2.437  0.6558  1.3986  0.8125
 1188SOL     OW 3562   2.940   1.701   3.027 -0.8887  0.0323 -0.3987
 1188SOL    HW1 3563   2.854   1.711   3.067 -1.3682  0.2798 -1.4519
 1188SOL    HW2 3564   2.922   1.668   2.939  0.1947 -1.5745 -0.0647
 1189SOL     OW 3565   5.065   2.065   5.087  0.4588  0.3015  0.3925
 1189SOL    HW1 3566   5.117   2.144   5.069 -1.7880  1.7115 -0.2760
 1189SOL    HW2 3567   5.061   2.061   5.183  2.2237 -0.1848  0.4838
 1190SOL     OW 3568   5.045   1.877   4.682  0.5955  0.9146  0.1891
 1190SOL    HW1 3569   5.094   1.900   4.603  0.3426  0.2455 -0.1761
 1190SOL    HW2 3570   5.094   1.803   4.719 -0.3759 -0.0899 -0.4502
 1191SOL     OW 3571   5.097   1.562   4.966 -0.2480  0.4373  0.0106
 1191SOL    HW1 3572   5.102   1.600   5.054  2.2810  1.2059 -0.3877
 1191SOL    HW2 3573   5.161   1.491   4.967  0.5809  1.1119 -1.4779
 1192SOL     OW 3574   4.564   1.289   0.320  0.0528  0.1089  0.4791
 1192SOL    HW1 3575   4.527   1.288   0.408 -0.3570 -1.0883  0.3158
 1192SOL    HW2 3576   4.650   1.329   0.330 -0.9461  2.2717  0.9888
 1193SOL     OW 3577   0.343   5.938   3.804  0.0338  0.3424 -0.4421
 1193SOL    HW1 3578   0.401   5.942   3.880  0.1931  1.3483 -0.6100
 1193SOL    HW2 3579   0.310   5.848   3.804 -0.2493  0.4317  1.0286
 1194SOL     OW 3580   3.247   1.311   1.193 -0.0785  0.2725  0.1986
 1194SOL    HW1 3581   3.302   1.236   1.172 -0.0340  0.4014 -0.1532
 1194SOL    HW2 3582   3.173   1.304   1.133 -1.4759 -1.0016  1.9655
 1195SOL     OW 3583   2.902   3.119   4.581  0.4451 -0.7216  0.3428
 1195SOL    HW1 3584   2.936   3.140   4.494 -1.1267 -1.9396 -0.6201
 1195SOL    HW2 3585   2.979   3.118   4.637  1.4205  0.7490 -0.8823
 1196SOL     OW 3586   1.691   1.940   4.172  0.1112 -0.0047 -0.0582
 1196SOL    HW1 3587   1.738   1.951   4.254 -1.6558  2.0635  0.7911
 1196SOL    HW2 3588   1.738   1.996   4.110  0.0812  0.3039  0.1938
 1197SOL     OW 3589   1.960   0.628   0.716  0.0184  0.0205  0.2584
 1197SOL    HW1 3590   2.017   0.614   0.791 -0.1369  1.4619  0.6748
 1197SOL    HW2 3591   2.002   0.698   0.667 -1.4692  1.2639  0.6809
 1198SOL     OW 3592   0.930   3.427   3.236  0.5390  0.2354 -0.0407
 1198SOL    HW1 3593   0.841   3.438   3.270  0.7397 -0.6595  0.8151
 1198SOL    HW2 3594   0.984   3.414   3.314  1.1873 -0.7495 -0.6371
 1199SOL     OW 3595   3.989   3.761   3.940 -0.1380 -0.0384  0.0993
 1199SOL    HW1 3596   3.948   3.838   3.979 -1.2934 -0.8162  0.4465
 1199SOL    HW2 3597   4.072   3.794   3.904  0.1142  1.0595  1.5877
 1200SOL     OW 3598   0.390   2.053   2.370 -0.4055 -0.4138  0.3464
 1200SOL    HW1 3599   0.374   1.967   2.409 -0.6559 -0.7374 -0.4597
 1200SOL    HW2 3600   0.315   2.106   2.396 -0.7859 -0.7549 -0.0483
 1201SOL     OW 3601   0.461   1.293   4.815  0.1393 -0.0558 -0.4624
 1201SOL    HW1 3602   0.369   1.313   4.799  0.2184  1.2083  0.5424
 1201SOL    HW2 3603   0.496   1.370   4.858  1.3602 -1.0283  0.3729
 1202SOL     OW 3604   1.214   4.311   4.962 -0.5075 -0.3777 -0.1260
 1202SOL    HW1 3605   1.165   4.301   5.043  1.0337  2.0726  1.2268
 1202SOL    HW2 3606   1.150   4.342   4.898 -1.0984  0.9473  1.0841
 1203SOL     OW 3607   1.843   3.247   5.252 -0.1577  0.6275  0.4999
 1203SOL    HW1 3608   1.757   3.213   5.275 -0.8290  0.9748 -1.3516
 1203SOL    HW2 3609   1.900   3.218   5.324 -1.0597 -2.7063  0.0565
 1204SOL     OW 3610   2.404   1.203   1.296  0.3367  0.0934 -0.1225
 1204SOL    HW1 3611   2.313   1.217   1.271 -0.2487 -2.5299  0.2549
 1204SOL    HW2 3612   2.447   1.286   1.276 -1.4674  0.4428 -3.3313
 1205SOL     OW 3613   3.000   1.322   3.801 -0.1821 -0.0269 -0.4661
 1205SOL    HW1 3614   2.929   1.282   3.852 -0.6073 -0.0233 -1.0410
 1205SOL    HW2 3615   3.079   1.301   3.850 -0.4590 -1.0804 -0.4404
 1206SOL     OW 3616   3.700   2.293   0.628 -0.6164 -0.2513  0.5124
 1206SOL    HW1 3617   3.631   2.332   0.574 -0.0714  1.1015  0.7523
 1206SOL    HW2 3618   3.743   2.230   0.571 -0.2577  0.9232 -0.5622
 1207SOL     OW 3619   1.620   2.374   0.724  0.0286 -0.6942  0.5564
 1207SOL    HW1 3620   1.590   2.310   0.659  1.8633 -0.8063 -0.2707
 1207SOL    HW2 3621   1.557   2.367   0.795 -1.5956 -1.1689 -0.8466
 1208SOL     OW 3622   4.784   1.138   5.946 -0.0395  0.2793  0.0556
 1208SOL    HW1 3623   4.761   1.219   5.901  1.0937  1.4581  1.4996
 1208SOL    HW2 3624   4.706   1.115   5.996 -0.1746  0.8289  0.1084
 1209SOL     OW 3625   1.175   4.131   3.890 -0.0527  0.1894  0.0365
 1209SOL    HW1 3626   1.099   4.184   3.916 -0.5819  0.2927 -1.6014
 1209SOL    HW2 3627   1.136   4.053   3.851  0.6904  0.1106 -0.5508
 1210SOL     OW 3628   5.837   1.173   1.493 -0.0163  0.3449 -1.1410
 1210SOL    HW1 3629   5.789   1.248   1.526 -0.5809 -0.3444 -0.3715
 1210SOL    HW2 3630   5.777   1.132   1.430  0.1303  0.3166 -1.2625
 1211SOL     OW 3631   2.340   1.079   5.764  0.4589  0.2954 -0.2129
 1211SOL    HW1 3632   2.431   1.063   5.788  0.3051  0.7351  0.7056
 1211SOL    HW2 3633   2.339   1.170   5.733  0.1734  0.5818  0.6241
 1212SOL     OW 3634   4.852   3.381   0.400 -0.0229 -0.0001 -0.4094
 1212SOL    HW1 3635   4.875   3.370   0.492  0.3903 -1.4962 -0.6661
 1212SOL    HW2 3636   4.934   3.407   0.358  0.3338 -1.5070 -0.6939
 1213SOL     OW 3637   2.076   0.534   0.968 -0.1962  0.0991  0.3745
 1213SOL    HW1 3638   2.056   0.505   1.057  0.6529  0.4376  0.6897
 1213SOL    HW2 3639   2.053   0.627   0.967 -0.6683 -0.0164  0.0844
 1214SOL     OW 3640   2.190   0.208   4.597 -0.2839  0.2288 -0.1252
 1214SOL    HW1 3641   2.103   0.170   4.611 -0.5952  0.8011 -0.5039
 1214SOL    HW2 3642   2.238   0.187   4.677 -1.6080  2.2570  1.2786
 1215SOL     OW 3643   2.246   3.094   3.190  0.1233  0.3973  0.1562
 1215SOL    HW1 3644   2.268   3.012   3.144 -1.7459  0.4147 -0.8854
 1215SOL    HW2 3645   2.151   3.100   3.181 -0.0758  1.3688  2.5149
 1216SOL     OW 3646   2.691   2.959   3.802  1.1018 -0.4541  0.1467
 1216SOL    HW1 3647   2.757   3.025   3.823 -0.4457  1.2815 -0.1155
 1216SOL    HW2 3648   2.732   2.904   3.735  2.4993  0.1483  0.4718
 1217SOL     OW 3649   0.390   2.418   2.227  0.6435  0.8644  0.1879
 1217SOL    HW1 3650   0.442   2.467   2.164 -0.1771  2.1299  0.4451
 1217SOL    HW2 3651   0.300   2.445   2.210  0.0404 -1.1511 -0.1440
 1218SOL     OW 3652   2.087   4.911   3.483 -0.0413  0.0512  0.1464
 1218SOL    HW1 3653   2.080   4.959   3.400  1.2004 -0.0560 -0.0454
 1218SOL    HW2 3654   2.041   4.965   3.546  1.0336  1.3692 -0.1342
 1219SOL     OW 3655   2.971   1.725   5.474 -0.2807 -0.6206  0.0049
 1219SOL    HW1 3656   2.953   1.676   5.554  1.0823 -0.7531  0.2508
 1219SOL    HW2 3657   2.979   1.659   5.406  1.6591 -0.8155  0.3547
 1220SOL     OW 3658   5.956   1.390   3.501 -0.1346 -0.2523 -0.8678
 1220SOL    HW1 3659   6.050   1.391   3.521  0.1231 -0.5220 -1.9569
 1220SOL    HW2 3660   5.936   1.297   3.485 -0.3366 -0.0799 -1.6680
 1221SOL     OW 3661   1.478   0.780   5.168 -0.2506 -0.1964 -0.3775
 1221SOL    HW1 3662   1.419   0.794   5.243 -1.0452  1.6887 -1.2996
 1221SOL    HW2 3663   1.429   0.722   5.110 -0.3465 -0.2543 -0.2414
 1222SOL     OW 3664   0.035   1.560   1.866  0.4526 -0.1225  0.0633
 1222SOL    HW1 3665  -0.060   1.551   1.865  0.3832  0.5316 -0.0254
 1222SOL    HW2 3666   0.068   1.472   1.883 -0.1904 -0.2336  0.7767
 1223SOL     OW 3667   1.642   2.035   3.202 -0.3490 -0.2741  0.2603
 1223SOL    HW1 3668   1.611   1.991   3.124  0.6043  0.6410 -0.6635
 1223SOL    HW2 3669   1.617   1.977   3.274 -1.3295 -1.0749 -0.6992
 1224SOL     OW 3670   2.717   4.117   4.933  0.1417 -0.5365 -0.1370
 1224SOL    HW1 3671   2.700   4.190   4.873  0.0017 -0.4693 -0.0146
 1224SOL    HW2 3672   2.800   4.079   4.902  0.1503 -0.4035 -0.2761
 1225SOL     OW 3673   5.894   3.870   3.129  0.4169 -0.2104 -0.2155
 1225SOL    HW1 3674   5.834   3.844   3.199 -0.1880 -3.8921 -1.8853
 1225SOL    HW2 3675   5.844   3.934   3.077 -0.0439  0.6568  1.2217
 1226SOL     OW 3676   5.646   2.511   4.060  0.0939 -0.2506 -0.4860
 1226SOL    HW1 3677   5.623   2.419   4.044  3.1346 -0.9390 -1.5753
 1226SOL    HW2 3678   5.643   2.552   3.973  2.4564 -0.3484 -0.6783
 1227SOL     OW 3679   4.819   2.668   2.894 -0.4316 -0.5259  0.1459
 1227SOL    HW1 3680   4.867   2.721   2.830 -1.0299  1.7529  1.4587
 1227SOL    HW2 3681   4.856   2.693   2.979 -1.1775 -1.7873  0.8774
 1228SOL     OW 3682   2.461   5.424   0.447  0.3133 -0.3875 -0.0479
 1228SOL    HW1 3683   2.448   5.329   0.448  0.0103 -0.3463  0.6244
 1228SOL    HW2 3684   2.512   5.440   0.367  1.7968 -1.3045  0.6559
 1229SOL     OW 3685   0.687   4.924   4.581  0.4214 -0.1749  0.0620
 1229SOL    HW1 3686   0.591   4.914   4.578 -0.0289  3.2914 -0.4635
 1229SOL    HW2 3687   0.719   4.861   4.516 -1.7935  0.8689 -2.2158
 1230SOL     OW 3688   1.157   1.515   4.620  0.3840 -0.1831  0.0101
 1230SOL    HW1 3689   1.206   1.453   4.674 -0.7761 -0.8926  0.2816
 1230SOL    HW2 3690   1.119   1.577   4.682  0.3325 -0.0736 -0.1302
 1231SOL     OW 3691   0.613   2.169   2.703 -0.4139  0.2836  0.1220
 1231SOL    HW1 3692   0.669   2.091   2.703  0.4908  0.8673 -1.9034
 1231SOL    HW2 3693   0.667   2.237   2.745 -1.3028 -0.1703  2.1378
 1232SOL     OW 3694   4.952   1.190   0.247 -0.2959  0.0899  0.2620
 1232SOL    HW1 3695   5.030   1.134   0.251 -0.7226 -0.5925 -0.6089
 1232SOL    HW2 3696   4.878   1.129   0.249 -0.7576  0.4674 -2.1193
 1233SOL     OW 3697   0.650   3.598   5.752 -0.7468 -0.2231  0.7393
 1233SOL    HW1 3698   0.732   3.611   5.705 -1.1185 -1.4589 -0.3180
 1233SOL    HW2 3699   0.675   3.553   5.833 -0.2708  0.5191  1.0182
 1234SOL     OW 3700   0.404   1.671   1.297  0.2703 -0.0870  0.4158
 1234SOL    HW1 3701   0.473   1.685   1.232 -1.3572  0.4463 -1.3080
 1234SOL    HW2 3702   0.339   1.617   1.251 -1.1972  0.7588  1.3853
 1235SOL     OW 3703   5.105   4.255   5.342  0.1987  0.1270  0.0543
 1235SOL    HW1 3704   5.126   4.186   5.406 -0.1207 -0.4884 -0.4924
 1235SOL    HW2 3705   5.117   4.336   5.390  0.2720 -0.3196  0.8113
 1236SOL     OW 3706   0.869   0.749   1.959 -0.2547  0.0539  0.1329
 1236SOL    HW1 3707   0.804   0.803   2.004  0.2214  0.7468  0.0084
 1236SOL    HW2 3708   0.951   0.797   1.970  0.3145 -1.0228  0.6506
 1237SOL     OW 3709   1.647   3.267   3.222  0.3359 -0.3748 -0.5658
 1237SOL    HW1 3710   1.634   3.330   3.293 -1.3389 -0.0445 -1.1262
 1237SOL    HW2 3711   1.653   3.321   3.143 -0.4880 -0.8778 -0.9773
 1238SOL     OW 3712   0.565   2.694   2.696 -0.5477 -0.3704 -0.2545
 1238SOL    HW1 3713   0.592   2.626   2.635  1.6867 -0.3000  0.5621
 1238SOL    HW2 3714   0.575   2.776   2.647  1.0917 -0.3259  0.0910
 1239SOL     OW 3715   4.910   2.838   5.547  0.2494  0.6206  0.3131
 1239SOL    HW1 3716   4.942   2.774   5.483 -0.9063 -0.3077  0.6248
 1239SOL    HW2 3717   4.907   2.790   5.629  1.0002  1.5878  0.9236
 1240SOL     OW 3718   5.159   1.612   3.683  0.1072  0.3406 -0.1184
 1240SOL    HW1 3719   5.181   1.592   3.592  0.1984 -1.4675  0.2652
 1240SOL    HW2 3720   5.237   1.586   3.733 -0.6533 -0.5222  0.6532
 1241SOL     OW 3721   4.792   2.579   1.377 -0.2065 -0.0069 -0.3577
 1241SOL    HW1 3722   4.795   2.496   1.329  1.2434 -0.0737 -0.2046
 1241SOL    HW2 3723   4.876   2.582   1.423 -0.1095  1.6820 -0.6023
 1242SOL     OW 3724   1.346   1.964   2.404  0.1006 -0.1084 -0.3253
 1242SOL    HW1 3725   1.407   1.936   2.473  1.5956  1.4488 -0.9349
 1242SOL    HW2 3726   1.265   1.984   2.451  0.6617 -0.3585  0.7934
 1243SOL     OW 3727   0.668   0.921   2.073 -0.9146  0.1462 -0.2328
 1243SOL    HW1 3728   0.708   1.005   2.049 -0.6656 -0.2336 -1.1618
 1243SOL    HW2 3729   0.574   0.940   2.080 -0.6655  0.9975  1.7574
 1244SOL     OW 3730   0.485   1.510   4.990 -0.2756  0.1573  0.3296
 1244SOL    HW1 3731   0.427   1.501   5.066 -0.4829 -0.9557  0.0538
 1244SOL    HW2 3732   0.573   1.514   5.027 -0.2794 -1.5742  0.5943
 1245SOL     OW 3733   1.817   0.669   2.930 -0.2331 -0.0215 -0.1471
 1245SOL    HW1 3734   1.869   0.598   2.970 -0.9392 -0.7311 -0.4576
 1245SOL    HW2 3735   1.836   0.746   2.984  2.0570  0.0392 -0.9287
 1246SOL     OW 3736   1.400   2.004   4.772  0.1459  0.2522 -0.2581
 1246SOL    HW1 3737   1.455   1.973   4.845 -1.0734  1.3428  1.1996
 1246SOL    HW2 3738   1.449   2.078   4.736 -0.3178  1.2621  1.0742
 1247SOL     OW 3739   5.589   2.487   4.340  0.8117 -0.2912 -0.2162
 1247SOL    HW1 3740   5.619   2.495   4.249  2.3698 -1.2644  0.1769
 1247SOL    HW2 3741   5.653   2.536   4.391  0.2394 -0.1954  0.4262
 1248SOL     OW 3742   0.428   2.491   0.683  0.0724 -0.3293 -0.5310
 1248SOL    HW1 3743   0.416   2.573   0.732  0.1565 -0.9252  0.5231
 1248SOL    HW2 3744   0.382   2.505   0.600  0.5408  0.9768 -0.5895
 1249SOL     OW 3745   0.808   3.903   1.286  0.5910 -0.1226 -0.2732
 1249SOL    HW1 3746   0.778   3.909   1.195  1.6945  0.0897 -0.6452
 1249SOL    HW2 3747   0.903   3.912   1.280  0.7046 -0.3894  0.8831
 1250SOL     OW 3748   2.169   1.778   3.102 -0.4239  0.2649  0.0959
 1250SOL    HW1 3749   2.179   1.744   3.013 -0.8046 -1.6580  0.7355
 1250SOL    HW2 3750   2.247   1.832   3.116  0.0214 -0.0295 -1.1478
 1251SOL     OW 3751   5.515   4.628   3.524 -0.0854 -0.4682 -0.0901
 1251SOL    HW1 3752   5.492   4.556   3.464  2.1784 -0.3520 -1.2034
 1251SOL    HW2 3753   5.567   4.587   3.593  0.5610 -0.0386 -0.3099
 1252SOL     OW 3754   1.066   2.402   1.848 -0.0724  0.5560 -0.2350
 1252SOL    HW1 3755   1.128   2.407   1.921  0.8229  0.2484 -0.9594
 1252SOL    HW2 3756   0.997   2.464   1.872 -0.0198  0.1618  1.0666
 1253SOL     OW 3757   0.625   1.202   3.314 -0.8590  0.0624  0.0084
 1253SOL    HW1 3758   0.584   1.288   3.306 -0.7233 -0.0213 -2.0662
 1253SOL    HW2 3759   0.559   1.148   3.356 -1.5982  0.7570 -0.2308
 1254SOL     OW 3760   1.146   5.548   2.361  0.5148  0.3923  0.5893
 1254SOL    HW1 3761   1.095   5.605   2.418  0.5170  0.0275  0.9685
 1254SOL    HW2 3762   1.235   5.582   2.366  1.1173 -1.2529  3.0596
 1255SOL     OW 3763   3.395   3.677   5.353  0.3360 -0.0905 -0.2345
 1255SOL    HW1 3764   3.483   3.649   5.375  0.6233  0.5593 -0.5281
 1255SOL    HW2 3765   3.390   3.667   5.257 -0.4092 -1.5139 -0.0851
 1256SOL     OW 3766   1.576  -0.019   2.644 -0.6184 -0.2936  0.1105
 1256SOL    HW1 3767   1.562   0.068   2.609  0.9504 -0.5236 -1.1784
 1256SOL    HW2 3768   1.519  -0.023   2.721 -1.2440  1.5923 -0.2040
 1257SOL     OW 3769   1.330   3.233   1.421  0.0751 -0.4416  0.6060
 1257SOL    HW1 3770   1.255   3.236   1.480  0.1391 -0.6337  0.6982
 1257SOL    HW2 3771   1.404   3.213   1.478  0.6837  2.4061  0.9770
 1258SOL     OW 3772   4.708   2.021   3.453 -1.2010  0.1185  0.5128
 1258SOL    HW1 3773   4.768   1.958   3.411 -2.2793 -2.0484  2.0426
 1258SOL    HW2 3774   4.701   2.092   3.390 -0.3579 -1.5642 -1.6215
 1259SOL     OW 3775   2.816   4.564   5.578 -0.2884 -0.4369 -0.6269
 1259SOL    HW1 3776   2.808   4.549   5.672  0.6484 -0.3327 -0.5286
 1259SOL    HW2 3777   2.886   4.628   5.569 -1.0512  0.3181 -1.3410
 1260SOL     OW 3778   4.142   5.731   4.747 -0.6181  0.1472  0.1846
 1260SOL    HW1 3779   4.139   5.636   4.742 -0.2040  0.1836 -1.7516
 1260SOL    HW2 3780   4.051   5.758   4.742 -0.7004 -0.1446  0.0535
 1261SOL     OW 3781   1.439   2.162   0.822 -0.1270  0.1858 -0.4237
 1261SOL    HW1 3782   1.401   2.247   0.802 -0.1935  0.2004 -0.2434
 1261SOL    HW2 3783   1.368   2.114   0.866 -0.1211  0.0026 -0.6131
 1262SOL     OW 3784   1.177   4.044   0.137  0.0750  0.2601 -0.2802
 1262SOL    HW1 3785   1.123   4.122   0.126  0.8360  1.5265  3.4798
 1262SOL    HW2 3786   1.245   4.070   0.198 -0.0939 -3.5050  1.8270
 1263SOL     OW 3787   3.098   5.576   3.634  0.7409  0.0033  0.0828
 1263SOL    HW1 3788   3.169   5.595   3.696 -0.7943  1.5056  1.4978
 1263SOL    HW2 3789   3.113   5.486   3.606  2.1789 -0.3190  1.7382
 1264SOL     OW 3790   1.316   4.091   4.213 -0.4219  0.0028  0.5206
 1264SOL    HW1 3791   1.306   4.150   4.139  1.6127 -0.1306  0.0767
 1264SOL    HW2 3792   1.270   4.135   4.285  0.0654  1.5826 -0.0893
 1265SOL     OW 3793   5.048   5.615   3.421 -0.3285 -0.3919  0.0837
 1265SOL    HW1 3794   5.076   5.542   3.475 -1.7446 -1.2931 -0.3243
 1265SOL    HW2 3795   5.029   5.576   3.336  0.9082  0.8247 -0.8065
 1266SOL     OW 3796   0.646   1.525   5.737  0.4271 -0.0204 -0.8057
 1266SOL    HW1 3797   0.720   1.584   5.733  0.4613 -0.0252 -0.3158
 1266SOL    HW2 3798   0.572   1.577   5.705  0.5527  0.1327 -0.8484
 1267SOL     OW 3799   0.179   2.417   0.469  0.6400  0.2061  0.0868
 1267SOL    HW1 3800   0.146   2.506   0.481  1.1266  0.4863 -0.5717
 1267SOL    HW2 3801   0.115   2.362   0.512 -0.2534  0.7992 -0.4562
 1268SOL     OW 3802   1.647   4.607   5.100  0.0430 -0.0707 -0.2038
 1268SOL    HW1 3803   1.610   4.684   5.145  0.4263  1.4257 -2.2846
 1268SOL    HW2 3804   1.574   4.545   5.096 -0.1667 -0.0210  1.8796
 1269SOL     OW 3805   5.688   4.551   5.869 -0.7673  0.0808  0.0880
 1269SOL    HW1 3806   5.735   4.506   5.940 -0.8422  1.1393  0.8266
 1269SOL    HW2 3807   5.758   4.592   5.817 -0.6701 -1.1407 -0.8077
 1270SOL     OW 3808   1.503   4.010   5.430 -0.8831 -0.0154  0.9919
 1270SOL    HW1 3809   1.408   4.004   5.416 -1.0960  2.5120  0.9583
 1270SOL    HW2 3810   1.535   4.062   5.357  0.7646 -1.6956  0.4260
 1271SOL     OW 3811   5.084   2.722   5.159 -0.0617 -0.0500  0.0958
 1271SOL    HW1 3812   5.053   2.739   5.070 -1.0102  1.6078  0.7076
 1271SOL    HW2 3813   5.174   2.753   5.160 -0.1087  0.0961 -0.2331
 1272SOL     OW 3814   0.868   4.551   4.176 -0.4486 -0.5995  0.4835
 1272SOL    HW1 3815   0.800   4.488   4.197 -1.9990  1.1981  1.1131
 1272SOL    HW2 3816   0.863   4.560   4.080  0.8284 -2.4703  0.1794
 1273SOL     OW 3817   5.899   2.506   4.921 -0.1121  0.3241 -0.1207
 1273SOL    HW1 3818   5.854   2.539   4.843 -0.6625  1.5346  0.6797
 1273SOL    HW2 3819   5.830   2.499   4.987  0.1151 -1.8872 -0.0704
 1274SOL     OW 3820   1.833   4.051   3.723  0.1950 -0.0482  0.0382
 1274SOL    HW1 3821   1.881   4.079   3.645 -0.5188  0.2180 -0.3163
 1274SOL    HW2 3822   1.834   4.128   3.780 -0.2704  0.1309 -0.1960
 1275SOL     OW 3823   0.238   4.093   2.976  0.8279  0.1926  0.0163
 1275SOL    HW1 3824   0.182   4.060   2.905  3.3823  0.9300 -2.5297
 1275SOL    HW2 3825   0.292   4.019   3.001 -1.4173 -0.6780  2.8671
 1276SOL     OW 3826   4.760   2.407   5.830 -0.3918  0.0719 -0.2369
 1276SOL    HW1 3827   4.763   2.367   5.744 -0.9460 -0.3128 -0.0835
 1276SOL    HW2 3828   4.827   2.476   5.827 -0.2590 -0.0792 -0.8949
 1277SOL     OW 3829   0.726   5.961   5.728  0.1476 -0.2327  0.5859
 1277SOL    HW1 3830   0.732   5.985   5.635 -1.5092 -2.1989 -0.1209
 1277SOL    HW2 3831   0.670   6.028   5.767  0.1440  0.1410 -0.0480
 1278SOL     OW 3832   2.197   3.147   2.209 -0.3340  0.0523  0.0653
 1278SOL    HW1 3833   2.198   3.062   2.252 -0.2946  0.1026  0.1650
 1278SOL    HW2 3834   2.257   3.138   2.135 -0.3058  0.0032  0.0944
 1279SOL     OW 3835   0.523   5.014   4.246  0.3739 -0.5104 -0.1686
 1279SOL    HW1 3836   0.478   5.044   4.167  0.0219 -0.2759  0.1216
 1279SOL    HW2 3837   0.544   4.923   4.228 -1.3018 -0.9888  0.1768
 1280SOL     OW 3838   1.500   5.575   3.275  0.1385  0.1334 -0.2866
 1280SOL    HW1 3839   1.487   5.523   3.354  1.3458  0.2619  0.0207
 1280SOL    HW2 3840   1.526   5.661   3.308  1.1050  0.0587 -0.8206
 1281SOL     OW 3841   0.286   5.082   4.746  0.3865  0.2202 -0.0329
 1281SOL    HW1 3842   0.349   5.077   4.674 -1.0763 -1.6304 -1.2888
 1281SOL    HW2 3843   0.328   5.034   4.818  0.7133 -0.4145 -0.6299
 1282SOL     OW 3844   4.944   4.032   1.876 -0.3014  0.4223  0.7994
 1282SOL    HW1 3845   5.017   4.009   1.818 -2.2502  0.8540 -1.9976
 1282SOL    HW2 3846   4.904   3.949   1.900 -0.2950  0.3028  0.3986
 1283SOL     OW 3847   3.522   4.517   3.013  0.0657 -0.1540 -0.1040
 1283SOL    HW1 3848   3.519   4.612   3.000  0.5162 -0.1471 -0.1937
 1283SOL    HW2 3849   3.562   4.483   2.933  2.7998 -0.1207  1.0978
 1284SOL     OW 3850   1.586   2.565   5.383 -0.0356 -0.3101 -0.3172
 1284SOL    HW1 3851   1.492   2.552   5.368 -0.3120 -1.1926  1.8133
 1284SOL    HW2 3852   1.626   2.545   5.299 -1.5374 -2.8622 -0.5423
 1285SOL     OW 3853   4.813   1.067   3.476 -0.4941  0.1179 -0.0185
 1285SOL    HW1 3854   4.811   1.161   3.459 -1.7880  0.0199 -0.5235
 1285SOL    HW2 3855   4.904   1.049   3.498 -0.0731  1.3597 -0.6173
 1286SOL     OW 3856   3.260   2.655   4.413  1.0978 -0.1000  0.3359
 1286SOL    HW1 3857   3.276   2.649   4.507  1.2643  0.7127  0.3605
 1286SOL    HW2 3858   3.191   2.720   4.404  0.1042 -1.1523 -0.0160
 1287SOL     OW 3859   3.648   1.547   0.759  0.2920  0.6992 -0.2890
 1287SOL    HW1 3860   3.690   1.472   0.801 -0.1584 -0.4674 -1.7958
 1287SOL    HW2 3861   3.611   1.598   0.830  1.8001  0.2374  0.8750
 1288SOL     OW 3862   4.434   5.053   2.159 -0.2341  0.3194 -0.1749
 1288SOL    HW1 3863   4.407   4.962   2.152 -0.1567  0.1700  1.1865
 1288SOL    HW2 3864   4.357   5.103   2.134 -1.1662 -0.1185  1.6380
 1289SOL     OW 3865   1.859   0.263   2.743 -0.2352  0.4106 -0.7077
 1289SOL    HW1 3866   1.895   0.276   2.656 -1.0096  1.5556 -0.8807
 1289SOL    HW2 3867   1.766   0.247   2.728 -1.1191  3.9641 -0.0024
 1290SOL     OW 3868   4.426   0.450   5.470  0.2309 -0.3431  0.4452
 1290SOL    HW1 3869   4.482   0.440   5.393  1.1725 -1.8987  1.2814
 1290SOL    HW2 3870   4.349   0.498   5.438  1.0549 -0.0667 -1.2157
 1291SOL     OW 3871   1.583   1.342   1.387 -0.1819 -0.2858 -0.2430
 1291SOL    HW1 3872   1.547   1.362   1.474 -0.8868 -0.3700 -0.5054
 1291SOL    HW2 3873   1.589   1.428   1.344 -1.3691 -0.4044 -0.6786
 1292SOL     OW 3874   2.185   5.744   3.866 -0.3327  0.4545  0.0229
 1292SOL    HW1 3875   2.218   5.766   3.779  0.9197 -0.7516  0.1580
 1292SOL    HW2 3876   2.175   5.649   3.864 -0.6966  0.4640  1.0601
 1293SOL     OW 3877   5.658   3.249   5.353 -0.1018  0.4511  0.3434
 1293SOL    HW1 3878   5.593   3.246   5.423 -1.4437 -0.0394 -0.8529
 1293SOL    HW2 3879   5.608   3.226   5.274  1.1959  1.6530 -0.8780
 1294SOL     OW 3880   3.174   3.120   3.231 -0.2977 -0.2796 -0.6979
 1294SOL    HW1 3881   3.193   3.187   3.166 -2.3828  1.5220  0.4057
 1294SOL    HW2 3882   3.186   3.163   3.315 -2.6744 -0.8986  0.0472
 1295SOL     OW 3883   1.354   3.170   3.342  0.6487 -0.2821  0.1183
 1295SOL    HW1 3884   1.272   3.125   3.321  0.9321 -1.0695  0.6463
 1295SOL    HW2 3885   1.420   3.122   3.292  0.7358  0.6227 -0.6462
 1296SOL     OW 3886   1.875   1.648   3.883 -0.0048  0.1658  0.6666
 1296SOL    HW1 3887   1.961   1.664   3.923  0.3193  0.6689 -0.1992
 1296SOL    HW2 3888   1.886   1.677   3.792 -0.3988 -1.8667 -0.0772
 1297SOL     OW 3889   2.784   2.665   5.806 -0.4988  0.0179 -0.1846
 1297SOL    HW1 3890   2.697   2.695   5.832 -1.1491 -0.1186 -2.0878
 1297SOL    HW2 3891   2.827   2.743   5.771  0.5159  0.2895  1.5119
 1298SOL     OW 3892   2.172   3.517   5.852  0.1622 -0.6925  0.1746
 1298SOL    HW1 3893   2.100   3.456   5.840 -0.3223 -0.0576 -0.1415
 1298SOL    HW2 3894   2.149   3.593   5.800  1.6873 -0.9882 -1.0186
 1299SOL     OW 3895   1.195   2.377   2.063 -0.2976  0.3137 -0.0058
 1299SOL    HW1 3896   1.283   2.342   2.053  0.0973  1.0554  0.6873
 1299SOL    HW2 3897   1.150   2.313   2.119 -0.9221 -1.1914 -2.0980
 1300SOL     OW 3898   2.119   2.143   4.665 -0.6982 -0.3028 -0.1747
 1300SOL    HW1 3899   2.048   2.119   4.606 -0.2310  0.3616 -1.0276
 1300SOL    HW2 3900   2.131   2.066   4.721 -1.7366 -0.6065 -0.3535
 1301SOL     OW 3901   1.854   1.175   4.378 -0.8958  0.4858 -0.6082
 1301SOL    HW1 3902   1.799   1.231   4.433  0.0004  2.6919 -1.8459
 1301SOL    HW2 3903   1.926   1.231   4.350  1.7246 -2.1002  0.4110
 1302SOL     OW 3904   0.087   1.308   1.880  0.1565 -0.1064  0.1185
 1302SOL    HW1 3905   0.017   1.242   1.883 -0.2629  0.3635  1.4019
 1302SOL    HW2 3906   0.166   1.260   1.903 -0.2134 -0.1088  1.4587
 1303SOL     OW 3907   1.342   1.955   4.025  0.1568  0.3798 -0.0788
 1303SOL    HW1 3908   1.396   1.876   4.026 -0.3465  0.0309  0.0242
 1303SOL    HW2 3909   1.274   1.938   4.090  0.8255  1.4532  0.9267
 1304SOL     OW 3910   2.800   2.012   4.381  0.6053 -0.1421 -0.0109
 1304SOL    HW1 3911   2.755   2.048   4.458  1.0715 -0.0367  0.2144
 1304SOL    HW2 3912   2.813   2.087   4.324  1.6198  0.0661  0.4798
 1305SOL     OW 3913   1.358   3.450   0.627 -0.4436 -0.0739 -0.4037
 1305SOL    HW1 3914   1.345   3.424   0.718  1.9385  1.1968  0.3995
 1305SOL    HW2 3915   1.287   3.409   0.579 -1.6631 -0.9254  2.0048
 1306SOL     OW 3916   1.647   4.538   5.456 -0.2527  0.0792  0.0932
 1306SOL    HW1 3917   1.666   4.592   5.533  1.4047  0.9025 -0.8314
 1306SOL    HW2 3918   1.585   4.589   5.405 -0.6287 -0.0469  0.4174
 1307SOL     OW 3919   2.885   3.282   4.897  0.5933  0.0108  0.1088
 1307SOL    HW1 3920   2.827   3.309   4.968 -1.6982 -2.4836 -0.6301
 1307SOL    HW2 3921   2.869   3.188   4.888  3.2381 -0.3729 -1.5918
 1308SOL     OW 3922   1.212   0.942   2.297  0.7461  0.0523  0.0380
 1308SOL    HW1 3923   1.250   1.029   2.292  1.6142 -0.3627 -0.7907
 1308SOL    HW2 3924   1.203   0.914   2.206 -0.7085 -0.2335  0.2375
 1309SOL     OW 3925   0.585   4.353   4.965 -0.9430 -0.1741 -0.3588
 1309SOL    HW1 3926   0.681   4.358   4.960 -1.0269  0.5803 -1.6224
 1309SOL    HW2 3927   0.568   4.266   5.001  0.2531  0.6816  2.6315
 1310SOL     OW 3928   0.098   3.872   5.529 -0.1383 -0.3230 -0.3977
 1310SOL    HW1 3929   0.033   3.925   5.576  0.1850  0.4258 -0.7851
 1310SOL    HW2 3930   0.181   3.893   5.572 -0.0631 -0.8179 -0.2987
 1311SOL     OW 3931   1.479   0.786   5.805 -0.1859 -0.5635 -0.1209
 1311SOL    HW1 3932   1.481   0.704   5.757  2.4193 -1.6894  1.7122
 1311SOL    HW2 3933   1.570   0.814   5.810 -0.6848  0.9513  1.7264
 1312SOL     OW 3934   1.301   1.535   3.491 -0.4328  0.5495  0.1450
 1312SOL    HW1 3935   1.387   1.513   3.454  0.1058  0.8808  1.1454
 1312SOL    HW2 3936   1.241   1.470   3.453  0.0005  1.0848 -1.5448
 1313SOL     OW 3937   4.281   0.226   1.954 -0.3257 -0.5733  0.7926
 1313SOL    HW1 3938   4.313   0.207   1.866  0.3155 -1.3221  1.1756
 1313SOL    HW2 3939   4.200   0.174   1.962 -1.8682  1.5324 -0.2742
 1314SOL     OW 3940   2.394   1.697   4.776 -0.0475 -0.2164  0.3176
 1314SOL    HW1 3941   2.345   1.620   4.804  1.6918 -1.1518  0.9323
 1314SOL    HW2 3942   2.437   1.670   4.694  0.4537  0.1416  0.4585
 1315SOL     OW 3943   5.599   3.622   5.963  0.0346 -0.4094  0.1703
 1315SOL    HW1 3944   5.637   3.655   6.044  0.8095 -0.6608 -0.0854
 1315SOL    HW2 3945   5.645   3.668   5.894 -0.7987 -0.0102 -0.1361
 1316SOL     OW 3946   1.073   3.148   0.156 -0.2287  0.2718  0.4617
 1316SOL    HW1 3947   1.033   3.108   0.233 -0.6471  1.8712  1.1162
 1316SOL    HW2 3948   1.157   3.182   0.188 -0.3085  0.7515  0.1747
 1317SOL     OW 3949   0.530   5.781   4.811 -0.3147 -0.5182 -0.0352
 1317SOL    HW1 3950   0.533   5.743   4.898 -0.1205 -0.7550 -0.1477
 1317SOL    HW2 3951   0.457   5.844   4.815 -0.1249 -0.3226  0.3787
 1318SOL     OW 3952   3.147   3.781   4.716  0.7238  0.5460 -0.1098
 1318SOL    HW1 3953   3.098   3.699   4.722 -0.4304  1.1853 -0.4019
 1318SOL    HW2 3954   3.148   3.816   4.805  0.1504  0.7953 -0.1947
 1319SOL     OW 3955   1.448   1.734   0.981  0.4882  0.1926  0.3251
 1319SOL    HW1 3956   1.529   1.779   1.005  0.8498  0.1577 -0.7682
 1319SOL    HW2 3957   1.379   1.784   1.025  1.1218 -0.0190  1.5948
 1320SOL     OW 3958   4.003   4.448   2.741 -0.6468 -0.1420  0.0687
 1320SOL    HW1 3959   4.022   4.382   2.808  0.1263  0.3783  0.3738
 1320SOL    HW2 3960   4.066   4.430   2.672 -0.3817  0.3302  0.1897
 1321SOL     OW 3961   5.590   4.715   5.550  0.5947  0.3927  0.5836
 1321SOL    HW1 3962   5.548   4.707   5.635  0.4265 -2.4410  0.3218
 1321SOL    HW2 3963   5.518   4.709   5.487  1.0325 -1.8054  0.2063
 1322SOL     OW 3964   5.187   0.073   1.640 -0.4891  0.0889  0.3335
 1322SOL    HW1 3965   5.151   0.144   1.692 -2.2080 -0.6259  0.2007
 1322SOL    HW2 3966   5.111   0.017   1.620  0.7681 -1.7331  0.3671
 1323SOL     OW 3967   0.997   3.051   1.215 -0.5792 -0.1031  0.1961
 1323SOL    HW1 3968   0.975   3.061   1.123  0.3106  0.0729 -0.0007
 1323SOL    HW2 3969   0.987   3.138   1.253 -0.3734 -0.0590  0.1457
 1324SOL     OW 3970   1.533   1.675   1.508  0.5740 -0.2754  0.5635
 1324SOL    HW1 3971   1.525   1.733   1.433  1.2353 -0.3192  0.4569
 1324SOL    HW2 3972   1.627   1.659   1.517  0.4146 -1.2821  0.6196
 1325SOL     OW 3973   3.239   4.651   2.862  0.2584 -0.2383 -0.2668
 1325SOL    HW1 3974   3.235   4.682   2.771 -1.0100 -0.4544 -0.2916
 1325SOL    HW2 3975   3.295   4.715   2.906  2.2313 -0.9797 -1.5187
 1326SOL     OW 3976   4.578   2.160   1.835 -0.6613  0.5687  0.2893
 1326SOL    HW1 3977   4.554   2.252   1.834 -1.5328  0.3697 -1.4381
 1326SOL    HW2 3978   4.526   2.121   1.765 -0.1420 -1.1980  0.8339
 1327SOL     OW 3979   0.378   1.697   0.454 -0.0029  0.1998 -0.4571
 1327SOL    HW1 3980   0.465   1.674   0.487 -0.5090 -0.0362  0.7611
 1327SOL    HW2 3981   0.386   1.789   0.428  0.7173  0.0573 -0.7553
 1328SOL     OW 3982   3.132   2.453   0.187 -0.0954  0.3248  0.5306
 1328SOL    HW1 3983   3.210   2.448   0.132 -0.3699  0.4695  0.1268
 1328SOL    HW2 3984   3.094   2.365   0.183  0.0575  0.2486  0.7441
 1329SOL     OW 3985   0.937   3.218   5.528 -0.1669  0.2712  0.1866
 1329SOL    HW1 3986   0.933   3.265   5.444 -0.7162  0.2757  0.2095
 1329SOL    HW2 3987   0.981   3.278   5.587  0.2400  0.2609 -0.1061
 1330SOL     OW 3988   1.776   2.311   1.884  0.3947  0.2186 -0.4093
 1330SOL    HW1 3989   1.785   2.400   1.850 -0.6694  0.2065 -0.7359
 1330SOL    HW2 3990   1.854   2.265   1.851  1.2139  1.1495  0.1843
 1331SOL     OW 3991   4.893   1.653   1.624  0.4953 -0.2320  0.2046
 1331SOL    HW1 3992   4.825   1.679   1.562  2.6267  1.2142 -1.7260
 1331SOL    HW2 3993   4.895   1.724   1.689  0.6534  0.1200 -0.1799
 1332SOL     OW 3994   0.147   3.896   1.060  0.3649 -0.6167  0.3733
 1332SOL    HW1 3995   0.122   3.910   1.151 -0.4920 -0.1829  0.0846
 1332SOL    HW2 3996   0.120   3.806   1.041  1.6204 -1.1179  0.8774
 1333SOL     OW 3997   0.688   0.036   5.452 -0.5015 -0.3352  1.0020
 1333SOL    HW1 3998   0.720   0.109   5.398 -0.7576  0.8284  2.3679
 1333SOL    HW2 3999   0.744  -0.038   5.427  0.6382  0.6479  0.5009
 1334SOL     OW 4000   0.381   2.238   2.811  0.0835  0.7945  0.8529
 1334SOL    HW1 4001   0.378   2.202   2.899 -0.2616 -1.2805  0.0446
 1334SOL    HW2 4002   0.456   2.195   2.769 -1.2313 -0.1981 -0.6026
 1335SOL     OW 4003   5.696   5.659   0.114 -0.4541  0.2678 -0.5486
 1335SOL    HW1 4004   5.732   5.665   0.025 -0.6348  0.6293 -0.5984
 1335SOL    HW2 4005   5.764   5.699   0.169 -1.1490  1.7875 -0.7454
 1336SOL     OW 4006   2.666   3.706   4.909 -0.3980 -0.2236  0.0120
 1336SOL    HW1 4007   2.736   3.727   4.970 -0.6201 -2.2378  1.0702
 1336SOL    HW2 4008   2.706   3.644   4.847 -0.5073  0.8426 -1.1560
 1337SOL     OW 4009   4.103   4.923   3.584 -0.9693 -0.0631 -0.6146
 1337SOL    HW1 4010   4.139   4.988   3.644 -0.6720  0.2229 -1.0936
 1337SOL    HW2 4011   4.177   4.897   3.529 -1.3015 -0.0795 -1.0637
 1338SOL     OW 4012   3.804   3.116   4.364  0.1465 -0.2153 -0.2908
 1338SOL    HW1 4013   3.840   3.196   4.404 -0.0797  0.1927 -0.8811
 1338SOL    HW2 4014   3.777   3.144   4.277 -0.4574 -0.8137 -0.2990
 1339SOL     OW 4015   0.309   4.097   3.910  0.1981  0.4066 -0.1793
 1339SOL    HW1 4016   0.398   4.131   3.899 -0.2043  2.1079  1.3047
 1339SOL    HW2 4017   0.304   4.076   4.004 -0.7938 -0.2203 -0.3614
 1340SOL     OW 4018   1.283   3.622   0.923  0.3071  0.0562 -0.1104
 1340SOL    HW1 4019   1.229   3.680   0.870  0.3510  1.8046  1.6377
 1340SOL    HW2 4020   1.251   3.534   0.904  0.5360  0.5242 -3.2080
 1341SOL     OW 4021   0.396   3.262   2.340 -0.7227 -0.1449  0.0774
 1341SOL    HW1 4022   0.373   3.296   2.427  0.4361  3.4096 -0.8470
 1341SOL    HW2 4023   0.312   3.248   2.297 -1.3158  0.9148  0.8233
 1342SOL     OW 4024   5.816   2.801   4.738  0.0720  0.0401  0.0067
 1342SOL    HW1 4025   5.766   2.805   4.819 -0.0131  0.3395 -0.0607
 1342SOL    HW2 4026   5.905   2.826   4.764  0.1263 -0.2237  0.0759
 1343SOL     OW 4027   2.219   3.386   5.008 -0.7615 -0.1785 -0.5625
 1343SOL    HW1 4028   2.258   3.353   5.089  0.0566 -0.1707 -0.9432
 1343SOL    HW2 4029   2.141   3.333   4.996 -1.9268  1.0180  1.1845
 1344SOL     OW 4030   1.669   1.862   5.309  0.0118  0.4701 -0.0487
 1344SOL    HW1 4031   1.668   1.957   5.301 -1.5007  0.2960 -3.5880
 1344SOL    HW2 4032   1.758   1.841   5.338  1.4082  2.8392 -2.2364
 1345SOL     OW 4033   2.326   4.036   1.915 -0.6612 -0.2377  0.2579
 1345SOL    HW1 4034   2.321   4.048   1.821  2.2552  1.1464  0.1795
 1345SOL    HW2 4035   2.317   3.942   1.928 -0.2994 -0.5369 -1.4620
 1346SOL     OW 4036   1.433   0.570   2.121  0.0462  0.0169  0.1170
 1346SOL    HW1 4037   1.526   0.575   2.098 -0.0601 -0.9983 -0.5830
 1346SOL    HW2 4038   1.411   0.477   2.113 -1.1121  0.2874 -0.0351
 1347SOL     OW 4039   5.516   1.411   1.988 -0.4776 -0.2575  0.4056
 1347SOL    HW1 4040   5.580   1.412   1.917 -1.3568  1.7705 -0.4374
 1347SOL    HW2 4041   5.502   1.318   2.006  0.3121 -0.8135 -1.5874
 1348SOL     OW 4042   0.050   2.504   1.315 -0.0583 -0.5545 -0.6446
 1348SOL    HW1 4043   0.017   2.589   1.346 -1.3300 -0.9612 -0.8513
 1348SOL    HW2 4044  -0.018   2.471   1.257  0.1097 -2.0260 -0.0455
 1349SOL     OW 4045   2.423   1.082   3.226 -0.5180 -0.1367  0.4162
 1349SOL    HW1 4046   2.504   1.101   3.179  0.3227 -0.7999  1.5397
 1349SOL    HW2 4047   2.404   0.990   3.206 -2.2057  0.5735 -1.5553
 1350SOL     OW 4048   5.577   2.102   0.310 -0.2052 -0.1281  0.2256
 1350SOL    HW1 4049   5.658   2.153   0.310  0.0644 -0.5551  0.2222
 1350SOL    HW2 4050   5.525   2.138   0.238  0.2781 -0.3211 -0.2249
 1351SOL     OW 4051   0.621   1.780   0.265 -0.5826  0.0947  0.1134
 1351SOL    HW1 4052   0.612   1.864   0.221 -0.2896 -0.8518 -1.8575
 1351SOL    HW2 4053   0.561   1.722   0.219  0.1164 -1.0778  0.6296
 1352SOL     OW 4054   2.460   2.709   3.553  0.3102  0.0967 -0.6052
 1352SOL    HW1 4055   2.548   2.714   3.590 -0.2748  0.4204  0.7839
 1352SOL    HW2 4056   2.471   2.657   3.473  1.4481 -1.5072  0.5223
 1353SOL     OW 4057   1.669   3.568   0.862  0.2827 -0.0851 -0.3335
 1353SOL    HW1 4058   1.649   3.496   0.922  2.8093 -1.0014 -0.4967
 1353SOL    HW2 4059   1.753   3.545   0.824 -0.3376  1.4394 -2.8187
 1354SOL     OW 4060   5.755   3.427   1.330 -0.7733  0.3111  0.8681
 1354SOL    HW1 4061   5.660   3.433   1.338 -0.8851  0.5089 -0.4304
 1354SOL    HW2 4062   5.782   3.512   1.296 -0.3594 -0.3397 -0.5230
 1355SOL     OW 4063   2.125   3.302   1.600  0.2402  0.2870  0.0467
 1355SOL    HW1 4064   2.071   3.368   1.556 -0.3743  0.8488  1.5672
 1355SOL    HW2 4065   2.097   3.306   1.691  0.8936 -1.4038  0.3560
 1356SOL     OW 4066   1.939   2.045   5.087  0.3486 -0.9502 -0.3382
 1356SOL    HW1 4067   1.999   1.971   5.080  1.0918 -0.3983  0.0512
 1356SOL    HW2 4068   1.996   2.122   5.082 -0.4485 -0.3882 -1.2073
 1357SOL     OW 4069   4.351   0.308   1.028 -0.3279  0.0997 -0.0673
 1357SOL    HW1 4070   4.378   0.247   0.959 -0.1334  1.8076 -1.5627
 1357SOL    HW2 4071   4.411   0.289   1.101 -0.3224 -1.5087 -0.4434
 1358SOL     OW 4072   0.908   3.072   5.805  0.1681  0.1512  0.0513
 1358SOL    HW1 4073   0.831   3.100   5.756  0.5441  0.4736 -0.3605
 1358SOL    HW2 4074   0.975   3.136   5.783  0.6538 -0.3191  0.1417
 1359SOL     OW 4075   4.044   3.290   0.489 -0.0330  0.6405 -0.0543
 1359SOL    HW1 4076   4.077   3.373   0.452 -1.6590  0.9537 -0.9037
 1359SOL    HW2 4077   4.123   3.238   0.503  1.0447  2.3359  0.5428
 1360SOL     OW 4078   5.572   0.968   0.371 -0.3725 -0.0973 -0.2261
 1360SOL    HW1 4079   5.507   0.915   0.417 -1.0935 -0.1196 -1.2338
 1360SOL    HW2 4080   5.562   0.944   0.279  1.8521 -0.9308 -0.3027
 1361SOL     OW 4081   3.969   0.151   1.438 -0.2370  0.1091 -0.0029
 1361SOL    HW1 4082   3.883   0.111   1.425 -0.0532 -0.5901  0.8210
 1361SOL    HW2 4083   4.019   0.127   1.360 -1.1223  1.5065 -1.0475
 1362SOL     OW 4084   0.746   1.411   2.149  0.6133  0.0109 -0.0117
 1362SOL    HW1 4085   0.831   1.454   2.139  1.0837 -1.1204 -1.1737
 1362SOL    HW2 4086   0.684   1.471   2.108  1.1710 -0.0981 -1.0668
 1363SOL     OW 4087   0.128   2.172   0.097 -0.1776  0.0751 -0.0251
 1363SOL    HW1 4088   0.092   2.217   0.021  1.4550  0.4633 -0.6232
 1363SOL    HW2 4089   0.213   2.139   0.067  0.1634 -0.4318  1.4090
 1364SOL     OW 4090   0.760   5.633   0.477  0.3243  0.4948 -0.0767
 1364SOL    HW1 4091   0.703   5.681   0.417 -2.0391 -1.1055  0.7735
 1364SOL    HW2 4092   0.821   5.699   0.509  0.0584  1.9276 -2.2910
 1365SOL     OW 4093   2.504   4.094   0.774  0.7798 -0.3056  0.5933
 1365SOL    HW1 4094   2.485   4.171   0.829  0.7007  0.1692 -0.0777
 1365SOL    HW2 4095   2.560   4.039   0.828 -0.2849 -0.4267  1.5990
 1366SOL     OW 4096   1.000   1.179   4.654 -0.2912 -0.0476  0.4945
 1366SOL    HW1 4097   1.026   1.251   4.712  0.1263  0.8742 -0.8077
 1366SOL    HW2 4098   0.954   1.221   4.582 -0.3929 -1.1325 -0.0943
 1367SOL     OW 4099   5.587   2.989   4.977 -0.0332 -0.1585  0.5872
 1367SOL    HW1 4100   5.540   3.058   5.023 -0.7953 -0.5112  0.3553
 1367SOL    HW2 4101   5.541   2.980   4.893  0.0496 -0.9431  0.6151
 1368SOL     OW 4102   3.922   3.587   1.834  0.8035 -0.3996  0.1070
 1368SOL    HW1 4103   3.862   3.656   1.862  1.4764  0.1983  0.0985
 1368SOL    HW2 4104   3.885   3.506   1.870  0.9940  0.1863  1.6909
 1369SOL     OW 4105   5.227   0.649   3.832 -0.0761  0.3546 -0.4823
 1369SOL    HW1 4106   5.151   0.649   3.775  1.4009 -0.6378 -2.5636
 1369SOL    HW2 4107   5.298   0.613   3.779  1.5554 -0.0381  1.7904
 1370SOL     OW 4108   5.316   1.793   4.928 -0.3716  0.2397 -0.0488
 1370SOL    HW1 4109   5.243   1.732   4.946 -0.4072  0.2967  0.0008
 1370SOL    HW2 4110   5.393   1.737   4.924 -0.6450 -0.0675 -1.8624
 1371SOL     OW 4111   1.530   5.165   1.802  0.1746 -0.1422  0.3951
 1371SOL    HW1 4112   1.613   5.174   1.849 -0.2456 -0.8831  1.3063
 1371SOL    HW2 4113   1.549   5.100   1.734  0.5430  0.2632  0.1048
 1372SOL     OW 4114   0.346   0.788   3.274 -0.2894  0.5859  0.1965
 1372SOL    HW1 4115   0.332   0.812   3.182  1.0493 -2.2266 -0.8663
 1372SOL    HW2 4116   0.292   0.709   3.286  0.8176 -0.0287  1.3089
 1373SOL     OW 4117   1.969   0.183   3.895  0.2831  0.0799  0.3320
 1373SOL    HW1 4118   1.919   0.181   3.977 -0.3415 -0.4544 -0.0520
 1373SOL    HW2 4119   1.954   0.097   3.856 -0.1462  0.6344 -0.7686
 1374SOL     OW 4120   5.489   4.060   4.871 -0.3422  0.0064 -0.5171
 1374SOL    HW1 4121   5.532   4.140   4.841  0.7183  1.3547  3.8255
 1374SOL    HW2 4122   5.557   3.992   4.866 -0.0440  0.3191 -0.6823
 1375SOL     OW 4123   1.542   5.096   4.761  0.2079  0.0072  0.7911
 1375SOL    HW1 4124   1.629   5.056   4.749  0.6371  0.5770  1.9031
 1375SOL    HW2 4125   1.480   5.026   4.740  0.9390 -1.2367  2.5538
 1376SOL     OW 4126   2.408   0.095   5.774 -0.4406 -0.7171  0.1010
 1376SOL    HW1 4127   2.439   0.008   5.750 -2.0091 -0.5842 -2.9796
 1376SOL    HW2 4128   2.323   0.104   5.729  0.1790  2.7625 -0.7256
 1377SOL     OW 4129   2.941   3.908   1.763  0.3539 -0.1419  0.0964
 1377SOL    HW1 4130   3.037   3.915   1.765  0.2822  1.1141  0.3383
 1377SOL    HW2 4131   2.924   3.820   1.730  1.5935 -0.4199  0.1408
 1378SOL     OW 4132   3.843   3.604   5.768 -0.2919  0.3763  0.1660
 1378SOL    HW1 4133   3.749   3.591   5.758 -0.5530  2.1999 -0.1314
 1378SOL    HW2 4134   3.851   3.683   5.822  1.0593  0.3660  0.0190
 1379SOL     OW 4135   1.334   1.161   3.513  0.1860  0.3244  0.3991
 1379SOL    HW1 4136   1.280   1.237   3.493  0.2674  0.0989 -0.7492
 1379SOL    HW2 4137   1.348   1.118   3.429 -0.2882 -1.2547  1.0766
 1380SOL     OW 4138   1.546   0.210   2.344 -0.0524  0.6668 -0.2905
 1380SOL    HW1 4139   1.487   0.229   2.271 -1.0312  0.0749  0.3225
 1380SOL    HW2 4140   1.565   0.296   2.382 -1.7668  0.7643  0.4323
 1381SOL     OW 4141   4.325   1.780   5.350 -0.5700  0.0664  0.2572
 1381SOL    HW1 4142   4.394   1.729   5.307  0.3843  1.8911 -0.4949
 1381SOL    HW2 4143   4.264   1.802   5.280 -0.5413  0.6155  0.3985
 1382SOL     OW 4144   1.919   4.595   0.925  0.2383 -0.2113  0.1501
 1382SOL    HW1 4145   1.998   4.552   0.957 -0.6997 -2.1005  0.0712
 1382SOL    HW2 4146   1.914   4.571   0.833 -1.3406 -1.6544  0.5701
 1383SOL     OW 4147   5.370   5.849   1.465  0.0854  0.8379  0.2279
 1383SOL    HW1 4148   5.464   5.867   1.470  0.5335 -1.5066  1.4365
 1383SOL    HW2 4149   5.337   5.867   1.552 -0.3719  0.6257  0.1024
 1384SOL     OW 4150   1.969   0.747   5.694 -0.7667 -0.2120  0.2262
 1384SOL    HW1 4151   2.029   0.800   5.641 -2.3450  1.3387 -0.0905
 1384SOL    HW2 4152   1.924   0.691   5.631  0.2601 -1.3738  0.4642
 1385SOL     OW 4153   0.988   5.533   1.679  0.4130  0.5545 -0.5022
 1385SOL    HW1 4154   0.929   5.586   1.626  0.6502  0.0891 -1.2461
 1385SOL    HW2 4155   1.074   5.542   1.637  0.9409  1.3876  0.6784
 1386SOL     OW 4156   5.353   4.883   5.379 -0.2020  0.1146  0.2262
 1386SOL    HW1 4157   5.300   4.914   5.306  0.9526 -1.4124 -1.3483
 1386SOL    HW2 4158   5.424   4.833   5.338  0.6706 -0.5524  2.3861
 1387SOL     OW 4159   1.935   5.650   0.047 -0.2842 -0.4819  0.1430
 1387SOL    HW1 4160   1.958   5.570   0.094  0.6962  0.0544  0.6072
 1387SOL    HW2 4161   1.899   5.708   0.114  3.6301  1.3164  0.9139
 1388SOL     OW 4162   3.068   0.086   0.072 -0.7969 -0.0178 -0.1593
 1388SOL    HW1 4163   3.052   0.114   0.162 -0.5142  0.8774 -0.3797
 1388SOL    HW2 4164   3.044  -0.007   0.071 -0.4146 -0.1326  0.9307
 1389SOL     OW 4165   4.544   4.926   4.258 -0.6071 -0.3617  0.7891
 1389SOL    HW1 4166   4.518   5.007   4.213 -4.2357 -1.0089  1.4093
 1389SOL    HW2 4167   4.520   4.856   4.196 -0.5465 -1.0486  1.5254
 1390SOL     OW 4168   4.575   1.185   0.711 -0.2138  0.0379  1.0075
 1390SOL    HW1 4169   4.596   1.246   0.782  0.1927 -0.2868  1.1679
 1390SOL    HW2 4170   4.659   1.160   0.674 -0.2628 -1.5274  1.8671
 1391SOL     OW 4171   1.316   5.677   4.127 -0.3374  0.2595 -0.5854
 1391SOL    HW1 4172   1.326   5.730   4.048  0.9382  0.0265 -0.5913
 1391SOL    HW2 4173   1.271   5.734   4.189  1.5464  1.5991 -0.3751
 1392SOL     OW 4174   4.719   3.025   0.563  0.1417 -0.3011  0.2706
 1392SOL    HW1 4175   4.767   3.025   0.480 -1.3604 -0.0503 -0.6407
 1392SOL    HW2 4176   4.767   2.963   0.618  0.9023 -0.8496 -0.9549
 1393SOL     OW 4177   2.711   0.574   5.335 -0.4065 -0.1130 -0.5435
 1393SOL    HW1 4178   2.648   0.514   5.296 -1.1231  0.4598 -0.2986
 1393SOL    HW2 4179   2.691   0.659   5.296 -0.1941  0.1961  0.0024
 1394SOL     OW 4180   2.558   1.747   3.125  0.1280  0.3825 -0.0564
 1394SOL    HW1 4181   2.603   1.694   3.192 -0.8116  0.9462  1.0625
 1394SOL    HW2 4182   2.501   1.805   3.175  0.3265  1.7133 -1.3147
 1395SOL     OW 4183   1.711   4.177   0.522 -0.1803  0.0235  0.1063
 1395SOL    HW1 4184   1.645   4.177   0.591  1.9966 -2.0828  2.3681
 1395SOL    HW2 4185   1.697   4.094   0.476  0.7677 -0.3488  0.4829
 1396SOL     OW 4186   4.046   5.502   3.424  0.3889  0.1841 -0.0489
 1396SOL    HW1 4187   4.141   5.488   3.428  0.4457  0.5341 -0.2105
 1396SOL    HW2 4188   4.023   5.488   3.332  0.6679  2.5669 -0.5411
 1397SOL     OW 4189   5.903   1.376   5.760 -0.0252 -0.6125  0.3210
 1397SOL    HW1 4190   5.921   1.283   5.768  1.5565 -0.4774 -1.1002
 1397SOL    HW2 4191   5.820   1.381   5.714  0.4395 -1.3606 -0.6383
 1398SOL     OW 4192   3.713   5.518   0.296  0.1694 -0.1398  0.0796
 1398SOL    HW1 4193   3.700   5.596   0.351  2.1779  1.4484 -1.5049
 1398SOL    HW2 4194   3.652   5.529   0.223  0.6626  0.1417 -0.2990
 1399SOL     OW 4195   5.867   5.239   1.565 -0.0627 -0.0919  0.0675
 1399SOL    HW1 4196   5.879   5.324   1.524  0.0403  0.1228  0.5327
 1399SOL    HW2 4197   5.869   5.176   1.493 -0.9376  0.3630 -0.3614
 1400SOL     OW 4198   4.219   4.472   3.116  1.1578  0.2096  0.7195
 1400SOL    HW1 4199   4.203   4.414   3.042 -0.0135 -0.6418  1.6076
 1400SOL    HW2 4200   4.247   4.554   3.076  0.0213 -0.0535 -0.6968
 1401SOL     OW 4201   0.416   5.207   0.760 -0.4285 -0.4058  0.0475
 1401SOL    HW1 4202   0.476   5.143   0.721  0.5774 -0.2319  1.2467
 1401SOL    HW2 4203   0.348   5.154   0.801  1.0114 -0.8279  2.0345
 1402SOL     OW 4204   3.713   4.856   1.547  0.5570 -0.1994 -0.3372
 1402SOL    HW1 4205   3.686   4.943   1.578  1.2000  0.1737 -0.7985
 1402SOL    HW2 4206   3.631   4.807   1.538  0.1034  0.6301 -0.8675
 1403SOL     OW 4207   4.421   4.939   1.398 -0.1127 -0.2475 -0.1704
 1403SOL    HW1 4208   4.352   4.905   1.455 -0.4695  0.1520 -0.3614
 1403SOL    HW2 4209   4.399   5.031   1.386  0.9793  0.1384  0.5500
 1404SOL     OW 4210   2.969   1.373   2.532 -0.1268 -0.2939  0.9367
 1404SOL    HW1 4211   3.061   1.384   2.553  0.5412 -1.2882 -1.1869
 1404SOL    HW2 4212   2.948   1.284   2.561 -0.4158 -0.0989  1.3427
 1405SOL     OW 4213   2.282   5.117   5.635 -0.4920  0.2593 -0.0179
 1405SOL    HW1 4214   2.346   5.109   5.564  0.0816  1.4640  0.3363
 1405SOL    HW2 4215   2.198   5.132   5.591 -0.3866 -0.3856 -0.4602
 1406SOL     OW 4216   0.408   2.957   0.182 -0.2053 -0.7808 -0.0674
 1406SOL    HW1 4217   0.501   2.974   0.171 -0.4223  0.6070  0.0088
 1406SOL    HW2 4218   0.372   3.040   0.215 -1.1381 -1.8844  1.9022
 1407SOL     OW 4219   1.281   3.681   1.781  0.0098 -0.0371 -0.2947
 1407SOL    HW1 4220   1.305   3.719   1.697 -0.9411  0.0843 -0.5234
 1407SOL    HW2 4221   1.198   3.636   1.765 -0.5911  0.6603  0.7571
 1408SOL     OW 4222   2.991   4.406   5.062 -0.5876  0.3072 -0.7860
 1408SOL    HW1 4223   3.069   4.400   5.116 -0.5134  1.1160 -0.7950
 1408SOL    HW2 4224   2.933   4.467   5.108 -0.8772  0.3396 -1.1816
 1409SOL     OW 4225   5.038   5.348   0.495  0.0466 -0.3053  0.0918
 1409SOL    HW1 4226   5.059   5.374   0.405 -0.4057  0.8646  0.3080
 1409SOL    HW2 4227   5.122   5.326   0.534  0.0992 -2.5692 -1.1067
 1410SOL     OW 4228   5.560   2.662   2.648 -0.1714 -0.4078 -0.8134
 1410SOL    HW1 4229   5.493   2.697   2.706  0.5997  1.2921 -0.9107
 1410SOL    HW2 4230   5.628   2.630   2.707 -1.2132 -2.6225 -0.6918
 1411SOL     OW 4231   5.971   4.774   2.289  0.1018 -0.1708 -0.1828
 1411SOL    HW1 4232   5.971   4.717   2.366  1.2890  0.1663  0.0882
 1411SOL    HW2 4233   6.025   4.849   2.315 -1.9125  1.4120 -0.3125
 1412SOL     OW 4234   2.183   5.164   1.567  0.1254  0.5879  0.4526
 1412SOL    HW1 4235   2.218   5.213   1.641  1.5872  1.2588 -0.6286
 1412SOL    HW2 4236   2.233   5.195   1.492 -3.1557  1.9935 -1.3488
 1413SOL     OW 4237   0.550   3.955   0.236  0.6046 -0.4033  0.0559
 1413SOL    HW1 4238   0.516   4.006   0.310 -0.5781 -1.1762  0.0820
 1413SOL    HW2 4239   0.485   3.968   0.166 -0.0026 -2.1856  0.2097
 1414SOL     OW 4240   2.886   0.283   2.177  0.6355  0.1976  0.1104
 1414SOL    HW1 4241   2.902   0.353   2.114  1.0820 -0.2341 -0.2594
 1414SOL    HW2 4242   2.846   0.213   2.126 -2.3724  1.1449  0.9481
 1415SOL     OW 4243   3.941   1.515   1.397  0.1921 -0.4857  0.2189
 1415SOL    HW1 4244   3.997   1.542   1.470 -0.5367 -0.0748  0.6382
 1415SOL    HW2 4245   3.877   1.585   1.389 -0.4012 -1.0580 -0.1100
 1416SOL     OW 4246   3.827   4.424   3.869 -0.8012 -0.1042 -0.0697
 1416SOL    HW1 4247   3.789   4.509   3.847 -0.2488  0.4076  0.9106
 1416SOL    HW2 4248   3.809   4.413   3.962  1.0942 -0.0056  0.3427
 1417SOL     OW 4249   0.987   0.075   0.298  0.3155 -0.0566 -0.1279
 1417SOL    HW1 4250   0.974  -0.014   0.268 -1.0967  0.3865 -0.9348
 1417SOL    HW2 4251   0.900   0.114   0.296  0.2665  0.4127  3.3401
 1418SOL     OW 4252   0.443   4.041   5.363  0.6230  0.3677 -0.4821
 1418SOL    HW1 4253   0.539   4.046   5.364  0.7293 -0.7563 -1.8037
 1418SOL    HW2 4254   0.420   4.004   5.448  1.4464 -0.3417 -0.5541
 1419SOL     OW 4255   2.442   2.523   4.984  0.6534 -0.6430 -0.3054
 1419SOL    HW1 4256   2.366   2.534   4.927 -0.0623 -3.3203 -0.0086
 1419SOL    HW2 4257   2.405   2.522   5.073  1.6550  2.6543  0.2812
 1420SOL     OW 4258   0.488   5.023   0.179  0.1349  0.3122  0.0585
 1420SOL    HW1 4259   0.465   5.072   0.100 -2.5954  2.7518  2.1560
 1420SOL    HW2 4260   0.562   5.071   0.216 -0.3875  0.8413  0.4132
 1421SOL     OW 4261   4.774   5.141   4.926  0.5024  0.2022 -0.0620
 1421SOL    HW1 4262   4.777   5.230   4.961  0.4928  0.4669 -0.7321
 1421SOL    HW2 4263   4.721   5.092   4.990  0.1772  0.7624  0.1027
 1422SOL     OW 4264   5.321   2.344   1.253 -0.3172 -0.1115  0.2293
 1422SOL    HW1 4265   5.296   2.386   1.171 -0.8149  1.5278  1.1850
 1422SOL    HW2 4266   5.393   2.286   1.228 -1.0426 -0.3331 -1.5086
 1423SOL     OW 4267   5.949   1.065   5.864  0.1430  0.1111 -0.0958
 1423SOL    HW1 4268   5.957   0.971   5.875  0.9602  0.2972  1.1946
 1423SOL    HW2 4269   6.039   1.097   5.867 -0.1531  0.9745 -0.0888
 1424SOL     OW 4270   0.218   3.705   5.876 -0.0656  0.2447 -0.6568
 1424SOL    HW1 4271   0.207   3.626   5.823 -0.0523 -0.4394  0.3310
 1424SOL    HW2 4272   0.137   3.712   5.925  0.1778  0.5002 -0.2888
 1425SOL     OW 4273   3.017   4.086   0.729 -0.3310  0.2887  0.3768
 1425SOL    HW1 4274   3.103   4.057   0.759 -0.5617 -0.3911  0.4006
 1425SOL    HW2 4275   2.971   4.110   0.810 -0.3813  0.0554  0.4159
 1426SOL     OW 4276   5.048   4.784   2.087  0.0267  0.2882  0.4078
 1426SOL    HW1 4277   5.036   4.701   2.041 -0.6168 -0.1966  1.4303
 1426SOL    HW2 4278   5.000   4.847   2.033 -1.3787 -0.4128  0.7861
 1427SOL     OW 4279   4.228   0.543   4.878  0.0295 -0.5982 -0.0179
 1427SOL    HW1 4280   4.321   0.521   4.877 -0.1169 -1.4894  1.6488
 1427SOL    HW2 4281   4.226   0.638   4.863  1.6165  0.3197  4.1559
 1428SOL     OW 4282   0.960   4.835   0.288 -0.1641 -0.0716 -0.5512
 1428SOL    HW1 4283   1.055   4.844   0.282 -0.1856  0.2556 -0.4670
 1428SOL    HW2 4284   0.933   4.802   0.202  0.0294 -0.1853 -0.5672
 1429SOL     OW 4285   2.280   0.118   0.559 -0.6732 -0.3309 -0.3046
 1429SOL    HW1 4286   2.291   0.147   0.468 -1.1377 -2.8820 -1.2406
 1429SOL    HW2 4287   2.353   0.160   0.606 -0.1745  0.7107 -1.9098
 1430SOL     OW 4288   4.945   3.335   4.884 -0.1916  0.0940 -0.2094
 1430SOL    HW1 4289   4.917   3.421   4.916 -0.1069  0.3005 -0.6855
 1430SOL    HW2 4290   4.873   3.277   4.907  0.4073 -0.0304  1.5229
 1431SOL     OW 4291   2.195   2.372   5.638 -0.2613 -0.1977 -0.3442
 1431SOL    HW1 4292   2.279   2.331   5.659  0.5376  0.2216 -2.5146
 1431SOL    HW2 4293   2.202   2.460   5.673  1.1307  0.5636 -2.3847
 1432SOL     OW 4294   0.661   0.969   0.486  0.0461  0.4328  0.2960
 1432SOL    HW1 4295   0.714   0.944   0.561 -0.8845 -1.6087  0.3199
 1432SOL    HW2 4296   0.579   1.003   0.524 -0.2668 -0.2261  0.2145
 1433SOL     OW 4297   1.121   5.738   1.280  0.1633  0.4710 -0.0840
 1433SOL    HW1 4298   1.208   5.722   1.244  0.2059  0.1987  0.1362
 1433SOL    HW2 4299   1.129   5.716   1.373  0.6059  3.0676  0.5822
 1434SOL     OW 4300   1.155   2.057   2.592  0.2229  0.1900 -0.0543
 1434SOL    HW1 4301   1.079   2.101   2.555  0.0673 -0.5670 -0.6629
 1434SOL    HW2 4302   1.118   1.987   2.646  0.4793  0.3670  0.3580
 1435SOL     OW 4303   0.782   4.656   1.013  0.5625  0.5587  0.0529
 1435SOL    HW1 4304   0.874   4.659   0.989 -0.2936  1.1799 -3.7257
 1435SOL    HW2 4305   0.743   4.592   0.953 -1.5395  0.5018  1.3573
 1436SOL     OW 4306   2.532   5.051   1.214  0.5696 -0.8655 -0.1718
 1436SOL    HW1 4307   2.559   4.977   1.269  0.9295 -1.0150 -0.5362
 1436SOL    HW2 4308   2.477   5.011   1.146  0.5809 -0.7645 -0.2404
 1437SOL     OW 4309   4.284   3.195   1.529  0.1675 -0.1975 -0.0501
 1437SOL    HW1 4310   4.313   3.184   1.438  0.4253  0.1954 -0.0164
 1437SOL    HW2 4311   4.318   3.280   1.555  0.1070 -0.3154  0.4241
 1438SOL     OW 4312   0.204   5.685   1.177 -0.0453 -0.2619  0.0427
 1438SOL    HW1 4313   0.256   5.623   1.228  1.6642  2.1985  1.4857
 1438SOL    HW2 4314   0.242   5.680   1.089 -0.5623 -1.8662 -0.1336
 1439SOL     OW 4315   0.415   3.384   0.925  0.4454  0.6175  0.1691
 1439SOL    HW1 4316   0.359   3.311   0.950  1.6408 -0.0958  0.8433
 1439SOL    HW2 4317   0.385   3.457   0.979 -1.5388  0.9874 -1.3586
 1440SOL     OW 4318   0.903   2.821   1.614  0.5625  0.2019  0.3622
 1440SOL    HW1 4319   0.894   2.836   1.520  0.7553  0.8138  0.4351
 1440SOL    HW2 4320   0.819   2.782   1.640  0.8692 -0.9001 -0.2272
 1441SOL     OW 4321   0.325   0.590   5.257  0.6589 -0.0321  0.4657
 1441SOL    HW1 4322   0.341   0.633   5.341 -1.5620  0.6683  0.5970
 1441SOL    HW2 4323   0.312   0.663   5.195 -2.5825 -0.3447  0.5723
 1442SOL     OW 4324   5.852   3.363   2.080  0.2071  0.2891  0.3310
 1442SOL    HW1 4325   5.919   3.307   2.121  0.8472  0.2738 -0.7130
 1442SOL    HW2 4326   5.890   3.389   1.996 -1.2802 -0.0874 -0.4980
 1443SOL     OW 4327   0.546   5.249   5.966 -0.5342 -0.6219 -0.5428
 1443SOL    HW1 4328   0.454   5.257   5.940 -1.1762 -0.1929  1.6577
 1443SOL    HW2 4329   0.594   5.288   5.893 -2.0783 -0.8880 -1.7615
 1444SOL     OW 4330   0.265   3.466   5.355 -0.3527 -0.1829 -0.3030
 1444SOL    HW1 4331   0.330   3.502   5.415 -0.6761  0.3563 -0.2672
 1444SOL    HW2 4332   0.185   3.514   5.375 -0.6676 -0.5736 -0.6078
 1445SOL     OW 4333   0.924   4.015   3.572  0.3540 -0.7519  0.4328
 1445SOL    HW1 4334   0.885   4.051   3.492 -1.2353 -0.7211  1.1653
 1445SOL    HW2 4335   0.928   3.921   3.557 -0.3840 -0.7964  0.4747
 1446SOL     OW 4336   3.203   0.417   2.805  0.0748 -0.3433 -0.1148
 1446SOL    HW1 4337   3.270   0.465   2.757  2.4620 -1.5004  1.8739
 1446SOL    HW2 4338   3.240   0.329   2.816 -2.7702 -1.7668 -0.8615
 1447SOL     OW 4339   5.737   1.174   5.681  0.5100  0.0692  0.1230
 1447SOL    HW1 4340   5.697   1.188   5.767  2.4551  4.1429  0.6126
 1447SOL    HW2 4341   5.795   1.099   5.694 -1.0003 -0.9195  1.6147
 1448SOL     OW 4342   1.392   5.304   1.022 -0.3334  0.5203  0.1448
 1448SOL    HW1 4343   1.370   5.387   1.063  1.1978 -0.0296  2.2647
 1448SOL    HW2 4344   1.487   5.296   1.032 -0.2647 -0.9390 -1.1394
 1449SOL     OW 4345   2.701   3.314   5.098 -0.0329  0.2023  0.4692
 1449SOL    HW1 4346   2.649   3.313   5.178 -0.6719 -1.9786  0.0729
 1449SOL    HW2 4347   2.647   3.269   5.033  1.0346  0.7292 -0.8305
 1450SOL     OW 4348   5.263   4.731   1.067 -0.4073 -0.4791  0.2435
 1450SOL    HW1 4349   5.346   4.686   1.052  0.5360  1.3466 -0.2829
 1450SOL    HW2 4350   5.253   4.732   1.162 -1.1930 -2.9750  0.2753
 1451SOL     OW 4351   5.189   3.004   2.005 -0.3622 -0.3176  0.3261
 1451SOL    HW1 4352   5.144   3.007   2.089 -0.3444 -3.1453  0.5385
 1451SOL    HW2 4353   5.282   3.007   2.027 -0.3425  1.6726  0.1524
 1452SOL     OW 4354   2.109   4.886   1.626  0.6777 -0.2392 -0.2695
 1452SOL    HW1 4355   2.147   4.974   1.618  1.5252 -0.6368 -0.7699
 1452SOL    HW2 4356   2.086   4.862   1.536  1.0357 -0.7786 -0.2215
 1453SOL     OW 4357   3.010   4.664   3.127  0.5240 -0.6103 -0.6739
 1453SOL    HW1 4358   3.037   4.579   3.092 -1.1563 -0.7980 -1.6427
 1453SOL    HW2 4359   2.918   4.651   3.152  0.4501  0.7261 -0.1588
 1454SOL     OW 4360   3.136   2.946   0.262  0.7979  0.1804 -0.0500
 1454SOL    HW1 4361   3.127   2.862   0.307  0.2733  0.0072 -0.4609
 1454SOL    HW2 4362   3.228   2.970   0.272  0.9229 -0.3874  0.1732
 1455SOL     OW 4363   2.389   0.038   1.192  0.1415  0.3975 -0.3326
 1455SOL    HW1 4364   2.315   0.088   1.158  0.4678  1.7901  0.8643
 1455SOL    HW2 4365   2.436   0.008   1.114 -2.0002 -1.1208 -1.1376
 1456SOL     OW 4366   3.153   5.138   0.019  0.1068  0.2120 -0.0051
 1456SOL    HW1 4367   3.118   5.049   0.017  1.5511 -0.4069 -2.5846
 1456SOL    HW2 4368   3.092   5.189  -0.034  1.0435 -0.0590 -1.4055
 1457SOL     OW 4369   4.945   4.514   0.823 -0.0336 -0.0000 -0.4082
 1457SOL    HW1 4370   4.969   4.569   0.898 -0.3625 -0.4734  0.0500
 1457SOL    HW2 4371   4.880   4.566   0.775  0.0992  0.2616 -0.3102
 1458SOL     OW 4372   2.920   4.439   2.821 -0.0319  0.4871 -0.4624
 1458SOL    HW1 4373   2.954   4.503   2.759 -0.4510  1.5493  0.3628
 1458SOL    HW2 4374   2.990   4.427   2.885  0.3750 -0.5525 -1.0772
 1459SOL     OW 4375   5.821   4.406   0.044  0.4920  0.2204 -0.1147
 1459SOL    HW1 4376   5.776   4.331   0.082 -0.2681  0.4817 -0.4760
 1459SOL    HW2 4377   5.870   4.444   0.117  0.7669 -0.5302  0.1032
 1460SOL     OW 4378   1.180   5.563   5.790  0.7781 -0.5359  0.6848
 1460SOL    HW1 4379   1.250   5.571   5.855  1.0689  0.9502  0.2307
 1460SOL    HW2 4380   1.100   5.552   5.841  1.0062  0.6242  1.3136
 1461SOL     OW 4381   4.555   0.192   2.718 -0.0899 -0.3515  0.4978
 1461SOL    HW1 4382   4.473   0.239   2.704  0.1228 -0.1172 -0.0005
 1461SOL    HW2 4383   4.554   0.122   2.653  0.4365  0.1040 -0.0099
 1462SOL     OW 4384   1.081   0.030   3.082 -0.2476 -0.5321  0.0709
 1462SOL    HW1 4385   1.173   0.020   3.106 -0.0626 -0.0881 -0.4456
 1462SOL    HW2 4386   1.059   0.120   3.107 -0.3611 -0.4304 -0.3772
 1463SOL     OW 4387   3.215   5.646   2.283 -0.4456  0.9714  0.2313
 1463SOL    HW1 4388   3.184   5.685   2.201 -1.3145  2.7195  1.3090
 1463SOL    HW2 4389   3.160   5.569   2.296 -0.0649  0.4873 -0.9946
 1464SOL     OW 4390   4.981   0.224   2.555 -0.6255 -0.1999  0.3045
 1464SOL    HW1 4391   4.999   0.293   2.619 -1.8679  0.7156 -0.3203
 1464SOL    HW2 4392   4.901   0.251   2.511 -0.7913 -1.7296 -0.3982
 1465SOL     OW 4393   0.778   4.180   1.731 -0.1259  0.5611 -0.3693
 1465SOL    HW1 4394   0.776   4.142   1.643  0.2766  0.0925 -0.1834
 1465SOL    HW2 4395   0.843   4.128   1.777  0.2001  1.2859 -0.0083
 1466SOL     OW 4396   5.771   4.748   1.517  0.1497  0.0995  0.6821
 1466SOL    HW1 4397   5.862   4.748   1.548  0.9379  0.4483 -1.4150
 1466SOL    HW2 4398   5.751   4.655   1.503  0.6725  0.0901 -0.0824
 1467SOL     OW 4399   0.733   3.252   2.719  0.0270 -0.3526 -0.2002
 1467SOL    HW1 4400   0.828   3.239   2.722  0.0386 -0.0861  1.9380
 1467SOL    HW2 4401   0.723   3.340   2.682  0.6594 -0.1076  0.1867
 1468SOL     OW 4402   4.950   5.780   1.142 -0.2118  0.1266  0.1217
 1468SOL    HW1 4403   4.899   5.861   1.140  1.0022  0.9961  1.8286
 1468SOL    HW2 4404   5.040   5.809   1.155  0.3163 -1.4756  0.2306
 1469SOL     OW 4405   5.737   4.493   0.794  0.0146 -0.1068 -0.2237
 1469SOL    HW1 4406   5.726   4.453   0.880 -1.2050  0.8932  0.1259
 1469SOL    HW2 4407   5.813   4.449   0.756 -0.1541 -1.4159  0.8685
 1470SOL     OW 4408   1.456   2.475   2.355  0.0250 -0.4709  0.6376
 1470SOL    HW1 4409   1.424   2.554   2.312 -0.2807 -0.4247  0.9407
 1470SOL    HW2 4410   1.513   2.507   2.425 -0.9877 -0.4612  1.4865
 1471SOL     OW 4411   5.488   4.786   1.866  0.3292  0.3677  0.4528
 1471SOL    HW1 4412   5.449   4.833   1.793 -0.6350 -1.1718 -0.0615
 1471SOL    HW2 4413   5.419   4.781   1.933 -0.5760 -2.5444 -0.5446
 1472SOL     OW 4414   5.373   5.265   0.228 -0.0869  0.6145 -0.1571
 1472SOL    HW1 4415   5.448   5.317   0.256  0.9722 -0.0986 -1.5683
 1472SOL    HW2 4416   5.350   5.301   0.142 -0.7995  0.2358 -0.1308
 1473SOL     OW 4417   0.285   5.948   4.615  0.6519  0.0417 -0.1117
 1473SOL    HW1 4418   0.249   5.958   4.527 -0.1366  0.3650  0.2397
 1473SOL    HW2 4419   0.209   5.928   4.670  0.8901  1.3677  0.7495
 1474SOL     OW 4420   1.039   5.476   1.177  0.1805 -0.0808 -0.4438
 1474SOL    HW1 4421   0.985   5.413   1.224  1.5475 -1.7086 -0.9422
 1474SOL    HW2 4422   1.008   5.561   1.207 -0.7175 -0.9993  1.4157
 1475SOL     OW 4423   5.651   5.198   5.722  0.2403  0.2159  0.0160
 1475SOL    HW1 4424   5.577   5.257   5.710  0.5923  0.6694  0.0932
 1475SOL    HW2 4425   5.611   5.116   5.752 -0.0885  0.9974  1.8399
 1476SOL     OW 4426   1.219   4.901   0.211  0.2041 -0.4239 -0.3026
 1476SOL    HW1 4427   1.289   4.876   0.272 -1.3144 -1.9905  0.9088
 1476SOL    HW2 4428   1.205   4.995   0.228  1.2008 -0.3680  0.2787
 1477SOL     OW 4429   0.860   5.523   0.183 -0.3374 -0.2758  0.0309
 1477SOL    HW1 4430   0.882   5.507   0.275  0.2123  0.0586 -0.0357
 1477SOL    HW2 4431   0.934   5.486   0.134  0.4497  1.4382 -0.1711
 1478SOL     OW 4432   0.933   5.247   1.293  0.1197 -0.6968 -0.1097
 1478SOL    HW1 4433   0.944   5.165   1.245 -2.6001 -0.3792 -1.4972
 1478SOL    HW2 4434   0.910   5.219   1.382  1.9097 -1.3425  0.1876
 1479SOL     OW 4435   3.613   0.201   5.487  0.3185 -0.1251  0.7847
 1479SOL    HW1 4436   3.654   0.180   5.403  0.6657  0.8867  0.6904
 1479SOL    HW2 4437   3.674   0.262   5.529  0.0682 -0.4804  1.7031
 1480SOL     OW 4438   1.738   2.856   4.272 -0.0925  0.2642  0.7232
 1480SOL    HW1 4439   1.712   2.800   4.199 -0.8224  1.9661 -0.3649
 1480SOL    HW2 4440   1.797   2.921   4.234  0.7059  0.2875  1.9470
 1481SOL     OW 4441   5.243   1.536   1.898 -0.1296  0.2199  0.0902
 1481SOL    HW1 4442   5.333   1.528   1.868 -0.9137 -1.5141 -2.0635
 1481SOL    HW2 4443   5.200   1.590   1.832 -0.5623  1.6754  1.4920
 1482SOL     OW 4444   0.151   5.912   0.534 -0.4677  0.1428  0.5748
 1482SOL    HW1 4445   0.239   5.875   0.526 -1.1436 -1.2200 -1.6121
 1482SOL    HW2 4446   0.159   5.979   0.602  2.2080 -0.0340  0.5488
 1483SOL     OW 4447   1.415   0.982   0.245 -0.2106  0.2006  0.2682
 1483SOL    HW1 4448   1.419   0.978   0.149 -0.0928  0.1131  0.2767
 1483SOL    HW2 4449   1.488   0.928   0.274 -0.7909 -0.5219  0.4197
 1484SOL     OW 4450   2.288   5.398   4.746  0.3150 -0.5006 -0.5348
 1484SOL    HW1 4451   2.285   5.413   4.652  0.9110  1.1840 -0.3148
 1484SOL    HW2 4452   2.382   5.401   4.767  0.1592 -0.4747  0.1707
 1485SOL     OW 4453   4.102   0.043   0.194  0.0030  0.0420  0.2963
 1485SOL    HW1 4454   4.141  -0.028   0.245  0.9424  0.8590  0.7417
 1485SOL    HW2 4455   4.169   0.112   0.192 -0.3663  0.3979 -1.2680
 1486SOL     OW 4456   0.532   4.663   0.172  0.2444 -0.1041 -0.1815
 1486SOL    HW1 4457   0.513   4.724   0.100 -0.7652 -0.5869 -0.3419
 1486SOL    HW2 4458   0.449   4.618   0.188  0.9753 -1.4728 -0.0869
 1487SOL     OW 4459   5.305   1.648   5.334 -0.1671 -0.3492 -0.3248
 1487SOL    HW1 4460   5.396   1.655   5.363 -0.5409 -0.9614  1.0703
 1487SOL    HW2 4461   5.299   1.707   5.258  1.2476  0.1221 -0.0907
 1488SOL     OW 4462   5.967   4.792   3.909 -0.5253  0.2309  0.4520
 1488SOL    HW1 4463   5.976   4.701   3.880 -0.7621  0.4761 -0.4189
 1488SOL    HW2 4464   5.994   4.844   3.833 -1.1145  0.8917  0.6867
 1489SOL     OW 4465   5.384   3.520   2.530 -0.1650 -0.1117 -0.0691
 1489SOL    HW1 4466   5.356   3.496   2.441  0.4193 -0.2544 -0.2169
 1489SOL    HW2 4467   5.473   3.551   2.520 -0.1140 -0.0734  0.4657
 1490SOL     OW 4468   5.931   5.713   1.896 -0.8891  0.6045  0.4867
 1490SOL    HW1 4469   5.943   5.726   1.802 -0.2177 -0.7889  0.3463
 1490SOL    HW2 4470   5.880   5.632   1.903  1.2308 -0.7651  1.3076
 1491SOL     OW 4471   5.220   3.400   4.646 -0.0664  0.3229  0.3494
 1491SOL    HW1 4472   5.143   3.451   4.620 -1.0390 -1.6464 -0.9512
 1491SOL    HW2 4473   5.183   3.323   4.691  1.2202 -0.0722  0.7616
 1492SOL     OW 4474   5.830   4.141   4.537  0.1604 -0.6018 -0.1380
 1492SOL    HW1 4475   5.745   4.135   4.581  0.5982  1.4582  1.1479
 1492SOL    HW2 4476   5.891   4.165   4.607  1.3028  0.5788 -1.4786
 1493SOL     OW 4477   5.136   0.261   1.860 -0.2262  0.4716  0.4410
 1493SOL    HW1 4478   5.054   0.289   1.819  0.9881  0.6574 -2.0468
 1493SOL    HW2 4479   5.197   0.332   1.843  0.6412  0.0584  1.6894
 1494SOL     OW 4480   5.626   4.646   4.485 -0.2342 -0.3349 -0.1017
 1494SOL    HW1 4481   5.592   4.635   4.574 -1.7262  0.2567 -0.5678
 1494SOL    HW2 4482   5.719   4.661   4.496 -0.5380  0.5667  1.4335
 1495SOL     OW 4483   1.573   4.313   1.983 -0.6642  0.2169 -0.2502
 1495SOL    HW1 4484   1.575   4.408   1.977 -0.6532  0.1360 -1.6786
 1495SOL    HW2 4485   1.660   4.285   1.953 -0.1867 -0.2057  1.3968
 1496SOL     OW 4486   1.249   4.550   1.528  0.4801 -0.3628 -0.1091
 1496SOL    HW1 4487   1.335   4.571   1.491 -0.1907  1.5997 -0.7097
 1496SOL    HW2 4488   1.255   4.578   1.620  0.2053  0.7434 -0.4080
 1497SOL     OW 4489   0.342   4.865   0.357  0.4342  0.7566 -0.5130
 1497SOL    HW1 4490   0.398   4.916   0.298  0.8212  1.6268  0.5846
 1497SOL    HW2 4491   0.393   4.858   0.438  0.3569 -1.3100 -0.5879
 1498SOL     OW 4492   5.955   2.760   2.782 -0.7156  0.0578  0.0996
 1498SOL    HW1 4493   5.912   2.837   2.818 -1.3277  0.1113 -0.7131
 1498SOL    HW2 4494   6.048   2.784   2.776 -0.8791  0.6650  0.0069
 1499SOL     OW 4495   0.837   4.047   4.317  0.6112 -0.0510  0.2766
 1499SOL    HW1 4496   0.858   4.139   4.333  1.4698 -0.5329  2.3100
 1499SOL    HW2 4497   0.918   4.010   4.282  0.6309 -0.2537  0.5320
 1500SOL     OW 4498   1.459   4.673   1.397  0.2054 -0.8641 -0.4839
 1500SOL    HW1 4499   1.530   4.681   1.333  1.1151  0.7802  0.6569
 1500SOL    HW2 4500   1.394   4.737   1.369  1.0877  0.6364  0.7799
 1501SOL     OW 4501   1.114   0.190   1.656 -0.5302  0.2653 -0.4133
 1501SOL    HW1 4502   1.072   0.121   1.604 -1.2636  1.2109 -1.1155
 1501SOL    HW2 4503   1.207   0.183   1.635 -0.3104 -1.6769  0.9414
 1502SOL     OW 4504   5.737   3.961   4.805  0.0433 -0.3050  0.4079
 1502SOL    HW1 4505   5.804   3.928   4.746 -0.9528 -0.5550 -0.5977
 1502SOL    HW2 4506   5.783   4.025   4.859  1.1881 -0.7914  0.0349
 1503SOL     OW 4507   3.681   2.766   0.976  0.1324 -0.3769  0.7776
 1503SOL    HW1 4508   3.720   2.682   0.998  0.0154 -0.3207  1.2284
 1503SOL    HW2 4509   3.694   2.819   1.055  0.4663  0.1188  0.3896
 1504SOL     OW 4510   5.877   4.545   2.464 -0.1331 -0.1041  0.5426
 1504SOL    HW1 4511   5.810   4.536   2.532 -0.0648  1.0043  0.7785
 1504SOL    HW2 4512   5.842   4.497   2.390 -1.9577  1.6939  0.1407
 1505SOL     OW 4513   0.457   3.594   5.534  0.2314 -0.6752  0.0569
 1505SOL    HW1 4514   0.495   3.590   5.622  0.5670 -0.6400 -0.0826
 1505SOL    HW2 4515   0.406   3.675   5.533 -0.3025 -1.0068  0.4271
 1506SOL     OW 4516   5.541   2.594   2.367 -0.3377  0.1339 -0.0433
 1506SOL    HW1 4517   5.459   2.628   2.332 -0.3893  1.7410  1.4483
 1506SOL    HW2 4518   5.516   2.544   2.445  0.1284  2.4398  1.7094
 1507SOL     OW 4519   5.429   5.065   3.032  0.3973 -0.3536  0.1016
 1507SOL    HW1 4520   5.333   5.057   3.035  0.0335  2.2272 -1.3957
 1507SOL    HW2 4521   5.447   5.094   2.943  2.5284 -0.2176  0.5355
 1508SOL     OW 4522   0.029   4.351   1.728  0.5829 -0.4455  0.5458
 1508SOL    HW1 4523   0.057   4.440   1.750 -1.3398  1.1225 -2.5757
 1508SOL    HW2 4524  -0.017   4.320   1.806  2.5319  0.6651  2.2230
 1509SOL     OW 4525   1.504   5.219   0.121 -0.1938 -0.3197 -0.5312
 1509SOL    HW1 4526   1.559   5.142   0.111 -0.1465 -0.2449 -0.8681
 1509SOL    HW2 4527   1.461   5.229   0.036 -0.3161 -0.0677 -0.4413
 1510SOL     OW 4528   5.836   3.972   0.388 -0.2063  0.2938  0.4031
 1510SOL    HW1 4529   5.827   3.890   0.437 -1.9119 -0.0458 -0.4069
 1510SOL    HW2 4530   5.840   4.039   0.455  1.0737 -0.4320  1.0816
 1511SOL     OW 4531   2.517   0.364   5.739  0.0020  0.2307  0.2903
 1511SOL    HW1 4532   2.505   0.270   5.750  0.7974  0.2008  0.9632
 1511SOL    HW2 4533   2.598   0.384   5.785  0.0455  1.1853 -0.1737
 1512SOL     OW 4534   5.127   3.659   2.462  0.4595 -0.3000 -0.1701
 1512SOL    HW1 4535   5.203   3.605   2.480 -0.6434 -1.7886  0.1627
 1512SOL    HW2 4536   5.125   3.723   2.533  0.5638 -1.1969  0.6578
 1513SOL     OW 4537   0.811   0.152   1.440 -0.2230  0.3496  0.3831
 1513SOL    HW1 4538   0.803   0.076   1.498  0.2900  0.4886  0.6386
 1513SOL    HW2 4539   0.904   0.156   1.418 -0.3833  0.4262 -0.2809
 1514SOL     OW 4540   1.612   0.033   5.009 -0.4035 -0.0591  0.3870
 1514SOL    HW1 4541   1.641   0.124   5.003  3.5198 -1.0634  1.2283
 1514SOL    HW2 4542   1.599   0.017   5.102  1.9889 -1.0572  0.6178
 1515SOL     OW 4543   4.513   5.540   2.511  0.4282  0.0886 -0.0331
 1515SOL    HW1 4544   4.497   5.540   2.417 -0.4223 -1.4051  0.0852
 1515SOL    HW2 4545   4.436   5.498   2.549  0.6427  0.8988  1.3607
 1516SOL     OW 4546   1.831   3.376   3.488  0.6377 -0.5391 -0.6351
 1516SOL    HW1 4547   1.860   3.405   3.575  1.8168 -3.4506  0.0474
 1516SOL    HW2 4548   1.752   3.325   3.505 -2.2418  2.9850 -1.9649
 1517SOL     OW 4549   2.899   2.430   4.893 -0.1321 -0.1893 -0.0646
 1517SOL    HW1 4550   2.859   2.354   4.850 -1.7187  0.9490 -0.6978
 1517SOL    HW2 4551   2.843   2.446   4.969  0.4143  0.1383  0.2744
 1518SOL     OW 4552   5.186   1.129   2.522 -0.0891  0.3241 -0.4245
 1518SOL    HW1 4553   5.270   1.176   2.524  0.0925  0.0084 -0.5191
 1518SOL    HW2 4554   5.169   1.114   2.429  0.3797 -0.7084 -0.3650
 1519SOL     OW 4555   3.310   4.295   4.615  0.1822  0.4219  0.1824
 1519SOL    HW1 4556   3.306   4.199   4.611 -1.3735  0.4977 -1.0009
 1519SOL    HW2 4557   3.386   4.318   4.560  1.8215 -0.1619  2.0916
 1520SOL     OW 4558   0.233   1.085   5.824 -0.5273  0.4072  0.1119
 1520SOL    HW1 4559   0.279   1.169   5.822  0.6815 -0.1554  1.6760
 1520SOL    HW2 4560   0.270   1.035   5.751  0.4962  0.4032  0.6196
 1521SOL     OW 4561   1.837   5.593   4.356 -0.2839 -0.1986 -0.4276
 1521SOL    HW1 4562   1.772   5.523   4.348 -1.1886  0.4213  1.0536
 1521SOL    HW2 4563   1.874   5.581   4.443  0.3801  0.4832 -0.6089
 1522SOL     OW 4564   5.172   4.285   5.849  0.0307 -0.3674  0.2399
 1522SOL    HW1 4565   5.128   4.254   5.929  1.0040 -1.9296  0.2199
 1522SOL    HW2 4566   5.105   4.276   5.781  0.1975 -2.3730  0.2772
 1523SOL     OW 4567   0.121   3.940   1.373  0.2177  0.3468  0.1453
 1523SOL    HW1 4568   0.127   4.015   1.432  0.4428  0.4394  0.0060
 1523SOL    HW2 4569   0.028   3.915   1.374  0.2559  0.2129  0.7039
 1524SOL     OW 4570   2.514   4.213   4.653 -0.2877 -0.1026 -0.0264
 1524SOL    HW1 4571   2.596   4.261   4.664 -0.2268 -0.2508  0.1836
 1524SOL    HW2 4572   2.482   4.199   4.743 -0.0717 -0.8474 -0.0588
 1525SOL     OW 4573   4.576   2.132   1.069  0.1775  0.1877  0.2356
 1525SOL    HW1 4574   4.594   2.046   1.031  1.7512 -0.0531  1.4629
 1525SOL    HW2 4575   4.481   2.141   1.062 -0.1525 -2.0992  1.0233
 1526SOL     OW 4576   4.137   0.112   1.215  0.1741 -0.4128  0.1062
 1526SOL    HW1 4577   4.174   0.044   1.159  2.2912  1.5258 -0.9882
 1526SOL    HW2 4578   4.061   0.145   1.166  0.6203 -0.3152 -0.5250
 1527SOL     OW 4579   4.815   5.538   3.724  0.2417 -0.1447  0.1374
 1527SOL    HW1 4580   4.780   5.622   3.696  1.4287  0.3745  0.1578
 1527SOL    HW2 4581   4.739   5.491   3.758 -0.2117  1.5162  1.5659
 1528SOL     OW 4582   5.295   5.589   0.679  0.1434  0.0238  0.1249
 1528SOL    HW1 4583   5.276   5.566   0.588  0.0104 -1.8892  0.5963
 1528SOL    HW2 4584   5.218   5.638   0.708 -0.0469  0.1902 -0.6364
 1529SOL     OW 4585   2.033   4.803   2.324 -0.4537 -0.4167  0.0943
 1529SOL    HW1 4586   2.069   4.736   2.383 -1.4646 -1.1874 -0.1337
 1529SOL    HW2 4587   1.973   4.755   2.267 -1.4124  0.7154  0.1000
 1530SOL     OW 4588   1.453   4.966   1.577  0.5014  0.2107 -0.1777
 1530SOL    HW1 4589   1.424   4.898   1.637  1.3382 -2.3280 -2.4680
 1530SOL    HW2 4590   1.380   4.976   1.515  1.1223  0.0012 -0.9591
 1531SOL     OW 4591   4.358   2.322   0.434  0.5030 -0.4871 -0.3067
 1531SOL    HW1 4592   4.375   2.409   0.470  2.0162 -0.8045 -0.1851
 1531SOL    HW2 4593   4.276   2.295   0.473 -1.0243  1.6663 -1.8079
 1532SOL     OW 4594   2.396   5.753   4.529  0.0123 -0.1764 -0.0466
 1532SOL    HW1 4595   2.311   5.710   4.517 -0.4628  0.1815  1.7457
 1532SOL    HW2 4596   2.380   5.845   4.506 -0.1770 -0.0473  0.5860
 1533SOL     OW 4597   0.230   3.434   5.057  0.2986 -0.3852  0.0186
 1533SOL    HW1 4598   0.217   3.412   5.150  0.3853 -0.2066  0.0746
 1533SOL    HW2 4599   0.232   3.530   5.056  2.5350 -0.3774  0.1507
 1534SOL     OW 4600   0.737   1.941   5.471 -0.6444 -0.4305  0.4824
 1534SOL    HW1 4601   0.817   1.979   5.508 -0.4086 -1.0731  0.6426
 1534SOL    HW2 4602   0.715   1.998   5.398 -0.5573  0.2842  1.0023
 1535SOL     OW 4603   1.543   0.950   3.072 -0.6476 -0.4099 -0.2308
 1535SOL    HW1 4604   1.569   0.917   2.986  1.2038 -0.5735  0.3512
 1535SOL    HW2 4605   1.452   0.921   3.082 -0.9901 -0.1981 -2.2070
 1536SOL     OW 4606   5.802   3.697   1.252  0.0869  0.5730 -0.2851
 1536SOL    HW1 4607   5.796   3.786   1.218  2.2058  0.6125 -0.7141
 1536SOL    HW2 4608   5.845   3.706   1.337 -2.3417  0.1742  1.0783
 1537SOL     OW 4609   0.104   0.527   0.323 -0.1818 -0.0992 -0.8831
 1537SOL    HW1 4610   0.161   0.570   0.387 -0.0922  1.9964 -2.2566
 1537SOL    HW2 4611   0.165   0.487   0.260 -0.1394  1.4971 -1.9332
 1538SOL     OW 4612   0.077   5.598   3.459 -0.1544 -0.4349  0.0198
 1538SOL    HW1 4613  -0.013   5.576   3.481 -0.2058 -1.4861 -1.1541
 1538SOL    HW2 4614   0.079   5.600   3.363  0.3829  2.5731 -0.0193
 1539SOL     OW 4615   1.389   0.013   5.520  0.2753 -0.0722  0.0803
 1539SOL    HW1 4616   1.350   0.097   5.495 -0.4065 -0.5529 -0.4737
 1539SOL    HW2 4617   1.330  -0.023   5.586  0.7649  0.0399  0.5958
 1540SOL     OW 4618   3.968   5.144   4.359 -0.5801 -0.6796  0.3500
 1540SOL    HW1 4619   3.965   5.144   4.454  0.7812 -1.2907  0.4149
 1540SOL    HW2 4620   3.978   5.052   4.335 -0.4657 -0.4895 -0.3629
 1541SOL     OW 4621   2.994   3.559   1.954 -0.4675  1.0820  0.1838
 1541SOL    HW1 4622   3.068   3.520   1.907 -1.5336  0.1954 -0.8329
 1541SOL    HW2 4623   2.949   3.611   1.887 -2.1162 -0.3375  0.1310
 1542SOL     OW 4624   2.436   3.872   4.068 -0.1369 -0.2587 -0.2738
 1542SOL    HW1 4625   2.437   3.786   4.109 -0.9983 -0.6828 -1.1065
 1542SOL    HW2 4626   2.383   3.861   3.989 -1.6612  1.4024  0.4455
 1543SOL     OW 4627   1.543   3.338   2.815 -0.0001 -0.1141 -0.4512
 1543SOL    HW1 4628   1.473   3.325   2.879  0.9571  0.4920  0.7480
 1543SOL    HW2 4629   1.538   3.261   2.758  0.6666 -1.9148  1.8095
 1544SOL     OW 4630   2.830   5.066   0.507  0.2172  0.5488 -0.1207
 1544SOL    HW1 4631   2.817   5.095   0.597 -0.1675  1.0650 -0.3382
 1544SOL    HW2 4632   2.796   5.138   0.453  1.8391  0.9411 -0.6954
 1545SOL     OW 4633   2.178   5.725   5.890 -0.1482  0.6753  0.5768
 1545SOL    HW1 4634   2.115   5.677   5.945  0.3219  0.5039  0.9686
 1545SOL    HW2 4635   2.144   5.716   5.801 -1.0745  1.1869  0.8604
 1546SOL     OW 4636   1.598   5.827   4.829  0.6586  0.2419  0.2825
 1546SOL    HW1 4637   1.592   5.900   4.891 -0.5546  0.3690  0.0378
 1546SOL    HW2 4638   1.634   5.866   4.749 -2.0154  1.0934 -0.5820
 1547SOL     OW 4639   5.065   4.591   4.054 -0.0103  0.4516  0.6183
 1547SOL    HW1 4640   5.077   4.685   4.070 -0.5931  0.6101  0.1258
 1547SOL    HW2 4641   5.088   4.550   4.138  0.8324  0.9789  0.6633
 1548SOL     OW 4642   1.936   4.826   5.483  0.1351  0.6316  0.1474
 1548SOL    HW1 4643   2.008   4.808   5.423  0.8550 -0.1337  1.2008
 1548SOL    HW2 4644   1.957   4.774   5.561 -2.6159 -1.3041 -0.2770
 1549SOL     OW 4645   5.468   3.600   4.347 -0.0050 -0.2118  0.2184
 1549SOL    HW1 4646   5.500   3.650   4.271  2.5657 -0.7889  0.8152
 1549SOL    HW2 4647   5.424   3.665   4.401  0.3018  0.7290 -0.6235
 1550SOL     OW 4648   2.736   3.336   0.243 -0.0096 -0.0563  0.5797
 1550SOL    HW1 4649   2.710   3.351   0.152  1.7749  3.3597  0.4371
 1550SOL    HW2 4650   2.803   3.269   0.237 -0.2857 -0.2633 -0.5776
 1551SOL     OW 4651   1.013   2.687   4.872 -0.0162 -0.8615 -0.9095
 1551SOL    HW1 4652   1.095   2.647   4.900 -0.3651 -0.4431  0.8510
 1551SOL    HW2 4653   0.945   2.629   4.907 -0.4776 -0.0298 -0.3829
 1552SOL     OW 4654   2.912   0.334   1.309 -0.5113  1.1384  0.2658
 1552SOL    HW1 4655   2.862   0.414   1.324 -0.1767  1.6279 -1.0557
 1552SOL    HW2 4656   2.937   0.338   1.216  0.3244 -0.0333  0.4097
 1553SOL     OW 4657   3.638   3.856   0.279 -0.5607  0.2615  0.4091
 1553SOL    HW1 4658   3.690   3.904   0.343  0.8930 -0.7759  0.0790
 1553SOL    HW2 4659   3.646   3.907   0.198 -1.2814  0.8671  0.7146
 1554SOL     OW 4660   2.684   3.931   3.325  0.8647 -0.1027 -0.5227
 1554SOL    HW1 4661   2.607   3.983   3.302  1.8293  2.5379  1.6796
 1554SOL    HW2 4662   2.731   3.921   3.243 -0.1605  1.1684 -1.3036
 1555SOL     OW 4663   2.120   5.897   1.948  0.3594  0.1500  0.3600
 1555SOL    HW1 4664   2.056   5.931   2.011 -1.3052  0.0766 -1.1974
 1555SOL    HW2 4665   2.172   5.834   1.999 -1.1981 -0.2352  1.5887
 1556SOL     OW 4666   3.612   5.005   1.089  0.2178 -0.0077 -0.0070
 1556SOL    HW1 4667   3.559   4.986   1.011 -2.4767  0.0143  1.6882
 1556SOL    HW2 4668   3.674   4.932   1.093 -1.1180 -1.2731 -0.9243
 1557SOL     OW 4669   2.979   5.853   2.621  0.1084 -0.3165  0.5756
 1557SOL    HW1 4670   2.933   5.795   2.681  1.5164 -0.9985  1.0422
 1557SOL    HW2 4671   2.946   5.941   2.641 -1.0728 -0.7905  0.7736
 1558SOL     OW 4672   3.380   4.594   1.060 -0.1640  0.2927  0.1158
 1558SOL    HW1 4673   3.431   4.590   0.979  1.1758  0.3682  0.9314
 1558SOL    HW2 4674   3.445   4.599   1.129 -1.2967  0.7135  1.1851
 1559SOL     OW 4675   0.845   4.461   1.427  0.3267  0.0101  0.3056
 1559SOL    HW1 4676   0.888   4.434   1.508 -0.7713  2.6991  1.9540
 1559SOL    HW2 4677   0.887   4.544   1.404 -0.7996  0.3533 -0.6589
 1560SOL     OW 4678   2.234   1.225   5.090 -0.3680 -0.3784  0.2578
 1560SOL    HW1 4679   2.216   1.183   5.006 -3.1545  1.1582 -0.0414
 1560SOL    HW2 4680   2.150   1.225   5.136  0.3963  1.4107  1.8167
 1561SOL     OW 4681   1.327   3.741   1.219  0.0510  0.3975 -0.0710
 1561SOL    HW1 4682   1.357   3.657   1.252  1.1279  1.0653  0.7169
 1561SOL    HW2 4683   1.334   3.734   1.124  1.7096  0.1611  0.0542
 1562SOL     OW 4684   5.757   3.618   0.709 -0.3821  0.3903  0.1501
 1562SOL    HW1 4685   5.685   3.576   0.663 -0.5273  1.1976 -0.3869
 1562SOL    HW2 4686   5.769   3.566   0.788 -0.5254 -0.6684 -0.5025
 1563SOL     OW 4687   5.635   3.684   0.272 -0.2442 -0.8229 -0.3811
 1563SOL    HW1 4688   5.685   3.608   0.304 -2.8532 -2.5958 -0.2131
 1563SOL    HW2 4689   5.574   3.703   0.343 -0.3334  0.8160 -0.8719
 1564SOL     OW 4690   0.205   2.933   2.539  0.0455 -0.1754  0.2536
 1564SOL    HW1 4691   0.230   2.885   2.618  0.2728 -0.4763  0.0015
 1564SOL    HW2 4692   0.255   2.891   2.469 -1.2936 -0.8963 -0.2986
 1565SOL     OW 4693   0.865   6.032   2.773 -0.0801 -0.6210 -0.1114
 1565SOL    HW1 4694   0.914   5.985   2.840  1.9570 -0.1588 -1.2021
 1565SOL    HW2 4695   0.801   5.969   2.740 -0.1856 -1.2677  1.2827
 1566SOL     OW 4696   2.563   5.771   3.249 -0.2375 -0.0769  0.1073
 1566SOL    HW1 4697   2.590   5.821   3.172  0.5102 -0.2975  0.2177
 1566SOL    HW2 4698   2.555   5.681   3.217  2.7016 -0.6903  0.8127
 1567SOL     OW 4699   4.360   0.236   3.013 -0.1090 -0.2488  0.1695
 1567SOL    HW1 4700   4.341   0.227   2.919 -2.2665  1.2013  0.4187
 1567SOL    HW2 4701   4.322   0.157   3.052 -2.0502  0.6064  0.1363
 1568SOL     OW 4702   1.357   5.982   4.946  0.0333  0.1190  0.1470
 1568SOL    HW1 4703   1.322   5.939   5.024  0.2933 -1.0334 -0.3599
 1568SOL    HW2 4704   1.435   6.028   4.978  0.3635 -0.6691  0.4998
 1569SOL     OW 4705   2.232   4.835   4.398  0.5295  0.8385 -0.0819
 1569SOL    HW1 4706   2.157   4.794   4.354 -0.3951  1.8169  0.5392
 1569SOL    HW2 4707   2.258   4.772   4.465  0.9029  0.0631 -0.9327
 1570SOL     OW 4708   4.655   4.123   1.126 -0.3144  0.3057  0.0615
 1570SOL    HW1 4709   4.702   4.042   1.146 -0.4578  0.4137  0.8877
 1570SOL    HW2 4710   4.633   4.116   1.034  1.8784  0.5237 -0.5453
 1571SOL     OW 4711   1.202   0.332   2.263  0.1265 -0.7587  0.5864
 1571SOL    HW1 4712   1.283   0.322   2.213  1.1696  0.5762  1.8887
 1571SOL    HW2 4713   1.150   0.256   2.240  1.7266 -1.6342 -0.3510
 1572SOL     OW 4714   0.290   4.514   0.145 -0.0403 -0.0026  0.3623
 1572SOL    HW1 4715   0.234   4.508   0.069 -1.6104  0.2759  1.4444
 1572SOL    HW2 4716   0.365   4.459   0.125  1.5246  2.9778 -2.9316
 1573SOL     OW 4717   5.207   5.982   0.463  0.3393  0.3908 -0.0878
 1573SOL    HW1 4718   5.285   6.030   0.438  0.6012 -0.3768 -0.7849
 1573SOL    HW2 4719   5.196   5.916   0.394 -0.1164 -0.4188  0.7350
 1574SOL     OW 4720   5.110   4.045   0.523  0.7971 -0.0059  0.2733
 1574SOL    HW1 4721   5.033   4.089   0.486  2.0993  1.6795 -0.5165
 1574SOL    HW2 4722   5.184   4.100   0.498  2.3041 -1.6744  0.8774
 1575SOL     OW 4723   5.941   5.041   3.266  0.1756  0.7244 -0.7559
 1575SOL    HW1 4724   5.949   4.959   3.218  1.5156 -0.0130  0.6280
 1575SOL    HW2 4725   5.857   5.078   3.237  0.0303 -0.6131 -2.1600
 1576SOL     OW 4726   0.421   3.234   4.504 -0.1430  0.4435 -0.2458
 1576SOL    HW1 4727   0.447   3.142   4.503  0.3257  0.5606  0.5470
 1576SOL    HW2 4728   0.450   3.266   4.589  0.8555  1.6435 -0.9997
 1577SOL     OW 4729   1.648   3.826   1.308  0.5757  0.1998  0.3219
 1577SOL    HW1 4730   1.691   3.806   1.224 -0.8891 -2.0869  0.0279
 1577SOL    HW2 4731   1.556   3.838   1.285 -0.0043 -1.3487  1.6833
 1578SOL     OW 4732   2.044   4.577   2.957 -0.0064  0.1504  0.9515
 1578SOL    HW1 4733   2.021   4.484   2.960 -0.9293  0.3678  1.1612
 1578SOL    HW2 4734   2.061   4.600   3.049  3.3927 -0.5158  0.6090
 1579SOL     OW 4735   5.398   3.323   4.286  0.0015 -0.0502 -0.1540
 1579SOL    HW1 4736   5.372   3.259   4.352  0.7117  0.8677  1.0424
 1579SOL    HW2 4737   5.406   3.405   4.334  2.9963  0.1720 -0.8367
 1580SOL     OW 4738   2.207   4.389   2.313 -0.3258  0.0573 -0.8877
 1580SOL    HW1 4739   2.131   4.445   2.296  1.4621  2.1352 -2.6444
 1580SOL    HW2 4740   2.207   4.325   2.242  0.2228  0.8556 -1.6259
 1581SOL     OW 4741   0.290   1.985   1.498 -0.2823 -0.2088 -0.2025
 1581SOL    HW1 4742   0.339   2.033   1.430 -0.2779  0.5627  0.3306
 1581SOL    HW2 4743   0.206   1.965   1.456 -0.1958  0.0603 -0.5167
 1582SOL     OW 4744   3.549   3.771   2.267 -0.1739  0.0929  0.2180
 1582SOL    HW1 4745   3.519   3.858   2.242  0.4109 -0.1475 -1.4498
 1582SOL    HW2 4746   3.534   3.766   2.362 -0.6957  1.7959  0.2491
 1583SOL     OW 4747   5.833   1.013   2.574  0.3165 -0.0278 -0.2560
 1583SOL    HW1 4748   5.885   1.028   2.653  1.0255  1.4441 -0.9659
 1583SOL    HW2 4749   5.869   0.932   2.536  1.5450  0.5108 -0.2833
 1584SOL     OW 4750   2.110   2.895   4.227 -0.1019 -0.2678  0.0347
 1584SOL    HW1 4751   2.127   2.845   4.307  1.1959 -1.1197 -0.7460
 1584SOL    HW2 4752   2.174   2.862   4.164  0.1296  1.6811 -0.8120
 1585SOL     OW 4753   1.216   4.928   2.643 -0.6520  0.0605  0.2933
 1585SOL    HW1 4754   1.202   4.903   2.734 -0.7810  2.1264  0.9082
 1585SOL    HW2 4755   1.233   5.022   2.647  1.1767 -0.1074 -1.6502
 1586SOL     OW 4756   1.385   2.243   3.038 -0.1214 -0.1246  0.2693
 1586SOL    HW1 4757   1.410   2.152   3.056  1.3814  0.5323  1.7002
 1586SOL    HW2 4758   1.394   2.252   2.943 -0.2104 -1.4491  0.1216
 1587SOL     OW 4759   1.904   4.385   1.219  0.8577  0.2046 -0.2902
 1587SOL    HW1 4760   1.967   4.392   1.291  2.2864  0.8504 -1.5479
 1587SOL    HW2 4761   1.933   4.309   1.169  0.9997  0.8520 -1.2110
 1588SOL     OW 4762   4.433   4.568   1.804 -0.0705  0.1719 -0.0301
 1588SOL    HW1 4763   4.367   4.569   1.873 -0.2797 -1.0318 -0.1848
 1588SOL    HW2 4764   4.399   4.506   1.739  1.0107 -0.1535 -0.3082
 1589SOL     OW 4765   0.288   4.706   5.180  0.2312 -0.2785  0.0179
 1589SOL    HW1 4766   0.249   4.657   5.253 -1.0394  0.9949  0.2525
 1589SOL    HW2 4767   0.365   4.749   5.218 -1.5371  2.0346  1.2717
 1590SOL     OW 4768   1.270   3.852   2.191  0.3073  0.4226  0.0650
 1590SOL    HW1 4769   1.211   3.840   2.116 -1.0996  1.9456  0.8615
 1590SOL    HW2 4770   1.267   3.769   2.238 -1.8143  0.6586  0.4591
 1591SOL     OW 4771   0.140   0.202   5.136 -0.0310  0.1347  0.0244
 1591SOL    HW1 4772   0.213   0.144   5.158  0.2136 -0.0474 -1.2048
 1591SOL    HW2 4773   0.135   0.263   5.210  1.6563  0.4493 -0.0828
 1592SOL     OW 4774   0.818   0.617   0.116 -0.5005  0.1211 -0.5096
 1592SOL    HW1 4775   0.722   0.616   0.121 -0.4885  1.0642  0.0356
 1592SOL    HW2 4776   0.844   0.693   0.167  0.5083  0.3247 -1.2989
 1593SOL     OW 4777   1.316   5.829   3.904 -0.1950 -0.2205 -0.0141
 1593SOL    HW1 4778   1.302   5.821   3.809 -0.2316  0.4786 -0.0705
 1593SOL    HW2 4779   1.358   5.914   3.915 -2.2385  0.7447  0.8071
 1594SOL     OW 4780   0.472   2.834   2.145 -0.4636  0.3443 -0.1457
 1594SOL    HW1 4781   0.378   2.824   2.161 -0.6026  1.9187  0.2299
 1594SOL    HW2 4782   0.502   2.894   2.214  0.9546 -0.6187  0.1209
 1595SOL     OW 4783   0.609   5.519   4.007  0.0993 -0.0958  0.4122
 1595SOL    HW1 4784   0.677   5.568   4.054 -1.0443  2.3204 -0.3082
 1595SOL    HW2 4785   0.548   5.492   4.075  0.2205  0.3705  0.7135
 1596SOL     OW 4786   4.658   1.573   3.062 -0.0675 -0.6293  0.0066
 1596SOL    HW1 4787   4.586   1.519   3.029 -0.8065  1.6211 -2.4811
 1596SOL    HW2 4788   4.672   1.638   2.993  3.2306  0.1070  1.1754
 1597SOL     OW 4789   1.089   0.526   4.803  0.0156  0.2011  0.2029
 1597SOL    HW1 4790   1.011   0.476   4.779  0.7108 -0.4332 -0.8132
 1597SOL    HW2 4791   1.102   0.586   4.729  1.2302 -0.6124 -0.2638
 1598SOL     OW 4792   4.059   5.369   3.793  0.4001 -0.5016  0.1438
 1598SOL    HW1 4793   3.981   5.425   3.787  0.2374 -0.6735  0.5971
 1598SOL    HW2 4794   4.125   5.424   3.836  0.1403 -0.7566  0.8803
 1599SOL     OW 4795   4.080   0.892   2.358 -0.4535  0.2159  0.1533
 1599SOL    HW1 4796   4.159   0.919   2.312  0.0529  0.3241  1.0707
 1599SOL    HW2 4797   4.110   0.866   2.445 -1.2477 -1.0106  0.0875
 1600SOL     OW 4798   3.794   4.659   3.430 -0.2070 -0.5503  0.3915
 1600SOL    HW1 4799   3.791   4.750   3.400 -2.9844 -0.3874  0.9170
 1600SOL    HW2 4800   3.878   4.652   3.476  0.0320  1.7759  0.4348
 1601SOL     OW 4801   1.344   3.064   1.211  0.3754 -0.4230  0.0073
 1601SOL    HW1 4802   1.290   2.990   1.238  0.8627 -0.3796  1.1722
 1601SOL    HW2 4803   1.335   3.128   1.282 -0.6325  0.9882 -1.3095
 1602SOL     OW 4804   0.392   5.453   0.667  0.0857  0.0681 -0.6405
 1602SOL    HW1 4805   0.313   5.466   0.719  0.2297  0.5941 -0.5406
 1602SOL    HW2 4806   0.419   5.363   0.686 -0.0150  0.1650 -0.0101
 1603SOL     OW 4807   5.565   3.459   3.424 -0.7345 -0.0113 -0.1243
 1603SOL    HW1 4808   5.499   3.440   3.357 -1.0266  0.9009 -0.1138
 1603SOL    HW2 4809   5.566   3.555   3.430  0.9492  0.0281 -0.4772
 1604SOL     OW 4810   4.219   4.880   2.142  0.2525 -0.1778 -0.2461
 1604SOL    HW1 4811   4.199   4.872   2.235  1.1341 -1.4415 -0.1467
 1604SOL    HW2 4812   4.144   4.926   2.105 -1.6045 -2.3731  0.5551
 1605SOL     OW 4813   0.666   0.752   1.724  0.3859 -0.0857  0.1146
 1605SOL    HW1 4814   0.733   0.744   1.792 -1.1824  0.1663  1.7694
 1605SOL    HW2 4815   0.636   0.662   1.710  0.4775 -0.0959 -0.0233
 1606SOL     OW 4816   0.889   0.466   2.571  0.0733  1.0243 -0.7234
 1606SOL    HW1 4817   0.917   0.538   2.514  0.2455  2.1037  0.6630
 1606SOL    HW2 4818   0.928   0.486   2.656  0.4911 -0.9695 -0.3856
 1607SOL     OW 4819   5.822   0.630   0.735 -0.2878  0.1080 -0.1438
 1607SOL    HW1 4820   5.912   0.599   0.730 -0.7682 -1.2394 -4.3684
 1607SOL    HW2 4821   5.823   0.714   0.689 -1.2670 -0.4059 -1.1738
 1608SOL     OW 4822   5.441   3.156   3.009  0.3935  0.0421  0.6666
 1608SOL    HW1 4823   5.456   3.143   2.915  1.3932 -0.1475  0.8387
 1608SOL    HW2 4824   5.390   3.237   3.014  0.7664  0.3314 -0.0184
 1609SOL     OW 4825   4.507   3.375   1.770  0.3420 -0.2998  0.2922
 1609SOL    HW1 4826   4.436   3.330   1.816  0.9757 -1.1198  0.4723
 1609SOL    HW2 4827   4.586   3.327   1.794  0.7514 -0.4343 -1.2519
 1610SOL     OW 4828   0.053   4.649   1.574 -0.5071  0.1589  0.4211
 1610SOL    HW1 4829   0.081   4.638   1.665 -1.3562  0.1974  0.6969
 1610SOL    HW2 4830   0.099   4.728   1.544  2.4312 -1.6810 -0.2907
 1611SOL     OW 4831   5.910   3.429   0.134 -0.4387 -0.0266  0.4613
 1611SOL    HW1 4832   5.939   3.517   0.158  4.7650 -0.7028 -1.9330
 1611SOL    HW2 4833   5.895   3.433   0.040 -1.8604 -1.3925  0.5821
 1612SOL     OW 4834   5.914   3.088   2.120 -0.0451  0.4415 -0.0759
 1612SOL    HW1 4835   5.837   3.060   2.169 -0.5413 -1.6458 -1.8474
 1612SOL    HW2 4836   5.905   3.042   2.036  1.2447  3.0353 -1.7338
 1613SOL     OW 4837   0.415   3.837   2.509 -0.4602 -0.1129 -0.1256
 1613SOL    HW1 4838   0.422   3.827   2.604  0.3607 -0.1106 -0.1812
 1613SOL    HW2 4839   0.405   3.932   2.496  4.2041  0.6127 -0.2461
 1614SOL     OW 4840   0.586   0.893   5.099  0.1703  0.8935 -0.6301
 1614SOL    HW1 4841   0.503   0.881   5.144  0.8437  1.6235  0.8761
 1614SOL    HW2 4842   0.566   0.880   5.006 -1.5152  0.6330 -0.2484
 1615SOL     OW 4843   0.479   2.798   3.950  0.2093 -0.3799 -0.2306
 1615SOL    HW1 4844   0.559   2.848   3.932 -0.0631 -0.0276 -0.4646
 1615SOL    HW2 4845   0.438   2.787   3.864 -0.4327  0.1729  0.0003
 1616SOL     OW 4846   0.294   3.154   1.076  0.6848 -0.0553  0.3742
 1616SOL    HW1 4847   0.307   3.066   1.042  0.4481  0.0719 -0.0650
 1616SOL    HW2 4848   0.273   3.143   1.168  0.2282 -0.4866  0.2211
 1617SOL     OW 4849   2.986   5.937   2.163 -1.3935  0.4459 -0.0140
 1617SOL    HW1 4850   3.050   5.900   2.101 -1.9818  0.4023 -0.6054
 1617SOL    HW2 4851   3.039   5.962   2.239 -0.7002  0.2076 -0.4033
 1618SOL     OW 4852   5.384   0.700   2.388 -0.0116 -0.3950  0.2222
 1618SOL    HW1 4853   5.379   0.702   2.483  3.0075  1.2251  0.4978
 1618SOL    HW2 4854   5.293   0.695   2.358 -1.0980  0.0719  3.1610
 1619SOL     OW 4855   1.580   1.746   2.738  0.5208  0.1970  0.3666
 1619SOL    HW1 4856   1.673   1.729   2.719  1.3357  1.8857  2.3877
 1619SOL    HW2 4857   1.534   1.716   2.660  2.7510 -0.7686 -0.6852
 1620SOL     OW 4858   0.578   0.173   5.865  0.0217 -0.0357  0.1085
 1620SOL    HW1 4859   0.603   0.252   5.817  1.1475 -1.1884 -1.3051
 1620SOL    HW2 4860   0.491   0.151   5.832 -1.5783  2.0655  2.5268
 1621SOL     OW 4861   5.489   3.613   3.134 -0.1843 -0.2547  0.9208
 1621SOL    HW1 4862   5.465   3.662   3.055  1.2787  2.9793  2.3136
 1621SOL    HW2 4863   5.408   3.568   3.159 -0.8871 -0.8021 -1.9198
 1622SOL     OW 4864   0.383   3.404   1.776 -0.0121  0.8220 -0.1573
 1622SOL    HW1 4865   0.327   3.380   1.849 -0.1298  1.8445  0.1050
 1622SOL    HW2 4866   0.457   3.450   1.816  0.9418 -0.3322 -0.5141
 1623SOL     OW 4867   0.420   0.104   4.205  0.0101 -0.2321 -1.0308
 1623SOL    HW1 4868   0.374   0.164   4.146 -0.0031  0.5387 -0.2620
 1623SOL    HW2 4869   0.504   0.147   4.222 -1.2493  1.2846  2.1285
 1624SOL     OW 4870   1.487   4.130   2.692 -0.2795  0.5634 -0.5151
 1624SOL    HW1 4871   1.564   4.093   2.735  1.0723  2.5682 -1.0666
 1624SOL    HW2 4872   1.482   4.220   2.724 -1.9591  0.7248 -1.0920
 1625SOL     OW 4873   4.823   2.075   1.798  0.0513 -0.1880 -0.6154
 1625SOL    HW1 4874   4.840   2.046   1.709  1.1849  0.6343 -0.6839
 1625SOL    HW2 4875   4.728   2.076   1.805 -0.0596  0.1180 -1.9320
 1626SOL     OW 4876   1.120   0.432   3.759  0.6117  0.1064 -0.5241
 1626SOL    HW1 4877   1.044   0.489   3.773  1.0369  0.4932  0.3021
 1626SOL    HW2 4878   1.187   0.467   3.818  1.0419 -0.9606 -0.3559
 1627SOL     OW 4879   0.715   5.147   3.973  0.6041 -0.4259  0.7563
 1627SOL    HW1 4880   0.741   5.062   4.008 -0.5878 -0.6862  1.0644
 1627SOL    HW2 4881   0.678   5.193   4.049  2.6688  1.0048  0.9738
 1628SOL     OW 4882   4.943   5.196   1.428 -0.0311  0.0759 -0.1256
 1628SOL    HW1 4883   4.975   5.286   1.420  0.7243 -0.0216  1.3893
 1628SOL    HW2 4884   4.944   5.162   1.338 -0.2304  1.5306 -0.7087
 1629SOL     OW 4885   1.231   2.819   2.429  0.1718  0.1852  0.2100
 1629SOL    HW1 4886   1.275   2.767   2.497 -0.0705 -1.3536 -0.7770
 1629SOL    HW2 4887   1.292   2.818   2.355  0.1634  1.3407  0.1691
 1630SOL     OW 4888   2.352   5.823   5.133  0.3225 -0.0169 -0.1838
 1630SOL    HW1 4889   2.386   5.798   5.047  0.0450 -0.6720 -0.1061
 1630SOL    HW2 4890   2.427   5.863   5.178 -0.0887  2.5096 -1.5589
 1631SOL     OW 4891   1.094   0.932   2.608 -0.6293 -0.0512  0.4628
 1631SOL    HW1 4892   1.103   0.853   2.554  0.9527 -0.0519  0.6732
 1631SOL    HW2 4893   1.137   0.910   2.691  1.5896  1.5903 -0.1436
 1632SOL     OW 4894   0.417   4.131   1.350  0.2289 -0.4781 -0.2164
 1632SOL    HW1 4895   0.333   4.168   1.324  0.2020  0.4135  1.0498
 1632SOL    HW2 4896   0.474   4.207   1.362  0.9346 -1.0157 -0.0993
 1633SOL     OW 4897   1.500   5.445   1.764 -0.2461 -0.3687  0.1466
 1633SOL    HW1 4898   1.586   5.467   1.731 -0.5930  1.0060  0.0853
 1633SOL    HW2 4899   1.493   5.350   1.754  0.8976 -0.3787 -0.6731
 1634SOL     OW 4900   3.032   3.944   5.235 -0.1163  0.4693  0.2560
 1634SOL    HW1 4901   3.070   3.906   5.314  0.0713 -0.5274 -0.2953
 1634SOL    HW2 4902   2.941   3.914   5.234  0.5533 -1.7998 -1.2356
 1635SOL     OW 4903   2.356   4.726   3.409  0.7829  0.1997 -0.0527
 1635SOL    HW1 4904   2.307   4.778   3.473  1.7063  1.1970 -0.1242
 1635SOL    HW2 4905   2.415   4.672   3.462  0.8285  0.2864 -0.0135
 1636SOL     OW 4906   5.450   0.160   1.798  0.4740  0.1627 -1.0982
 1636SOL    HW1 4907   5.428   0.218   1.725  1.6306  0.7176 -1.0213
 1636SOL    HW2 4908   5.426   0.209   1.876 -2.5094 -1.1309 -1.0451
 1637SOL     OW 4909   2.006   3.460   3.235  0.8134 -0.8212  0.1723
 1637SOL    HW1 4910   1.963   3.387   3.281 -0.5816  0.1142  0.3967
 1637SOL    HW2 4911   2.099   3.440   3.242  0.6128 -1.2486  2.5269
 1638SOL     OW 4912   5.492   1.239   4.738  0.6419 -0.1970 -0.1520
 1638SOL    HW1 4913   5.511   1.148   4.761 -0.3657 -0.1635  0.8691
 1638SOL    HW2 4914   5.573   1.286   4.759  2.0958 -1.1772 -2.9977
 1639SOL     OW 4915   1.803   5.138   2.303  0.4065  0.3856 -0.4195
 1639SOL    HW1 4916   1.763   5.054   2.278 -0.0427 -0.9859  4.0306
 1639SOL    HW2 4917   1.891   5.115   2.333  0.3306  1.5129  0.7364
 1640SOL     OW 4918   1.504   1.719   3.146  0.1685  0.6365  0.6373
 1640SOL    HW1 4919   1.563   1.676   3.084 -0.3878  0.4861  0.2040
 1640SOL    HW2 4920   1.496   1.657   3.219 -3.1111 -1.5328 -1.3547
 1641SOL     OW 4921   4.502   0.835   3.840  0.0102 -0.1299  0.0507
 1641SOL    HW1 4922   4.573   0.778   3.812  0.5468  0.3425  0.4414
 1641SOL    HW2 4923   4.446   0.843   3.762  1.6992  1.5167 -1.0894
 1642SOL     OW 4924   2.737   4.360   0.411 -0.5306 -0.0900 -0.5055
 1642SOL    HW1 4925   2.717   4.267   0.425 -0.2265 -0.1873 -0.7085
 1642SOL    HW2 4926   2.657   4.406   0.437 -0.9916 -0.4658 -1.2343
 1643SOL     OW 4927   0.051   5.239   2.308 -0.0101  0.0273 -0.2773
 1643SOL    HW1 4928  -0.042   5.216   2.312  0.0587 -0.1405  2.4064
 1643SOL    HW2 4929   0.090   5.174   2.251 -1.5597  0.2368 -1.6464
 1644SOL     OW 4930   0.974   5.920   1.805 -0.3519  0.6287 -0.1885
 1644SOL    HW1 4931   0.991   6.000   1.856  2.1799  0.2292 -0.2722
 1644SOL    HW2 4932   0.879   5.918   1.794 -0.7887  1.9678  2.5100
 1645SOL     OW 4933   0.590   4.389   0.513 -0.3467 -0.0462 -0.2794
 1645SOL    HW1 4934   0.629   4.320   0.460  2.1882 -0.3347  1.7775
 1645SOL    HW2 4935   0.612   4.471   0.468 -0.1717 -0.3981 -0.8297
 1646SOL     OW 4936   3.572   2.838   2.334 -0.1702 -0.1614  0.2639
 1646SOL    HW1 4937   3.584   2.744   2.325 -0.5271 -0.3630  1.6500
 1646SOL    HW2 4938   3.661   2.873   2.337 -0.0365 -0.3769 -0.8093
 1647SOL     OW 4939   3.872   4.831   5.138  0.5107 -0.0426  0.5312
 1647SOL    HW1 4940   3.827   4.755   5.103 -0.3601  0.0177  1.4734
 1647SOL    HW2 4941   3.839   4.839   5.228  1.0299  1.0937  0.6369
 1648SOL     OW 4942   4.567   5.985   5.975  0.4910  0.7811 -0.5383
 1648SOL    HW1 4943   4.630   5.914   5.962  0.0245  0.0190  1.1768
 1648SOL    HW2 4944   4.526   5.997   5.889  1.4814 -0.1314 -1.1566
 1649SOL     OW 4945   2.767   3.772   4.196 -0.4293  0.5649  0.2550
 1649SOL    HW1 4946   2.689   3.781   4.142 -1.0181 -1.8086  0.5765
 1649SOL    HW2 4947   2.737   3.794   4.285 -1.0376 -1.2091  0.5328
 1650SOL     OW 4948   0.536   5.769   1.496 -0.0090  0.1732 -0.0936
 1650SOL    HW1 4949   0.445   5.769   1.466  0.4379  0.0439 -1.5482
 1650SOL    HW2 4950   0.584   5.730   1.423  1.5142  2.2859 -0.2828
 1651SOL     OW 4951   0.558   0.729   2.419  0.2241 -0.0533 -0.1453
 1651SOL    HW1 4952   0.490   0.727   2.352  1.7298 -0.0804 -1.7406
 1651SOL    HW2 4953   0.618   0.797   2.389  1.3977 -0.6831  0.7143
 1652SOL     OW 4954   1.631   0.743   3.472 -0.5025  0.0734  0.3367
 1652SOL    HW1 4955   1.692   0.808   3.507  1.4377 -0.9711 -0.9141
 1652SOL    HW2 4956   1.616   0.771   3.382 -2.4639  0.6727  0.8019
 1653SOL     OW 4957   0.225   4.408   5.521 -0.5628 -0.4419  0.1043
 1653SOL    HW1 4958   0.260   4.445   5.440  0.3901 -1.2565  0.1259
 1653SOL    HW2 4959   0.162   4.342   5.492 -1.0229  0.0128  0.0508
 1654SOL     OW 4960   0.603   4.317   1.395 -0.3703  0.5912 -0.1585
 1654SOL    HW1 4961   0.581   4.400   1.437 -1.8699 -0.0786  0.4782
 1654SOL    HW2 4962   0.699   4.316   1.392 -0.1774  0.9445  2.8176
 1655SOL     OW 4963   1.556   5.757   2.448  0.2437 -0.4134  0.1263
 1655SOL    HW1 4964   1.518   5.686   2.397  0.6392  0.2431 -1.1489
 1655SOL    HW2 4965   1.567   5.721   2.536 -1.2076 -1.3300 -0.0338
 1656SOL     OW 4966   4.202   5.575   3.910 -0.4842 -0.6861 -0.2197
 1656SOL    HW1 4967   4.292   5.606   3.920  0.2932 -2.4934 -1.0499
 1656SOL    HW2 4968   4.162   5.588   3.996  1.6235 -2.8376  1.2275
 1657SOL     OW 4969   5.412   4.171   5.783  0.2117  0.6115 -0.7096
 1657SOL    HW1 4970   5.487   4.231   5.775  0.3063  0.8005  1.1198
 1657SOL    HW2 4971   5.343   4.225   5.820  0.8866 -0.7193  2.9322
 1658SOL     OW 4972   0.344   4.729   1.920  0.2048  0.3210 -0.2686
 1658SOL    HW1 4973   0.367   4.722   2.013 -0.7277  1.0710  0.0405
 1658SOL    HW2 4974   0.425   4.713   1.873  0.7862  0.3886  0.6974
 1659SOL     OW 4975   2.204   1.062   1.610 -0.1129 -0.2475  0.1920
 1659SOL    HW1 4976   2.244   1.136   1.656 -0.0461 -0.7475  0.9548
 1659SOL    HW2 4977   2.269   1.036   1.546  0.8019 -1.0243  1.3935
 1660SOL     OW 4978   5.480   4.951   0.097  0.2392 -0.0859 -0.5107
 1660SOL    HW1 4979   5.477   4.879   0.034 -0.3785 -0.0171 -0.5654
 1660SOL    HW2 4980   5.389   4.970   0.117  0.4220 -0.4025  0.7507
 1661SOL     OW 4981   5.432   3.069   2.103 -0.2569  0.2310  0.0917
 1661SOL    HW1 4982   5.496   3.128   2.062  0.9653 -0.8098  0.4315
 1661SOL    HW2 4983   5.393   3.122   2.173  1.0615  0.5603  0.6099
 1662SOL     OW 4984   1.265   0.232   2.878  0.0200  0.3012  0.3224
 1662SOL    HW1 4985   1.222   0.196   2.800  0.5980 -0.2157  0.2355
 1662SOL    HW2 4986   1.214   0.199   2.951  0.3476 -0.4453  0.2267
 1663SOL     OW 4987   0.477   4.486   5.630 -0.2513 -0.4422 -0.3451
 1663SOL    HW1 4988   0.384   4.476   5.608 -0.2304 -0.1695 -0.5702
 1663SOL    HW2 4989   0.521   4.483   5.545 -0.2066  1.1134 -0.4040
 1664SOL     OW 4990   0.919   4.296   4.366 -0.7437 -0.0784 -0.8798
 1664SOL    HW1 4991   0.963   4.362   4.313 -0.6778  0.1591 -0.5372
 1664SOL    HW2 4992   0.859   4.345   4.422 -0.0787 -0.2145 -0.0193
 1665SOL     OW 4993   0.306   5.621   5.924 -0.0902 -0.5096 -0.4153
 1665SOL    HW1 4994   0.278   5.530   5.917 -2.0867 -0.0042  0.1964
 1665SOL    HW2 4995   0.271   5.663   5.846 -0.7229  0.0697  0.1682
 1666SOL     OW 4996   0.658   0.397   2.936  0.2059  0.1281  0.2562
 1666SOL    HW1 4997   0.687   0.308   2.956 -0.7203 -0.0476  0.8707
 1666SOL    HW2 4998   0.580   0.384   2.882  0.1268  0.5757  0.2639
 1667SOL     OW 4999   5.496   5.149   2.789  0.3428  0.1702 -0.2387
 1667SOL    HW1 5000   5.559   5.088   2.752  0.2059  0.4539 -0.9492
 1667SOL    HW2 5001   5.414   5.129   2.744  0.6798  2.0423 -1.8134
 1668SOL     OW 5002   0.504   4.177   4.526  0.2055 -0.1939  0.0293
 1668SOL    HW1 5003   0.583   4.127   4.547 -0.1043 -0.2820  1.0519
 1668SOL    HW2 5004   0.432   4.118   4.550 -0.1610  0.5339  0.7631
 1669SOL     OW 5005   3.013   2.936   2.643  0.0234 -0.1478 -0.0859
 1669SOL    HW1 5006   2.964   2.988   2.706 -1.4685 -2.0428  0.4039
 1669SOL    HW2 5007   2.955   2.927   2.568  0.7279 -0.1406 -0.6469
 1670SOL     OW 5008   5.700   4.832   2.251 -0.1845  0.1400 -0.1472
 1670SOL    HW1 5009   5.682   4.882   2.171  0.0332  0.4544  0.0000
 1670SOL    HW2 5010   5.795   4.821   2.252 -0.3315 -1.5119 -0.9133
 1671SOL     OW 5011   1.052   1.320   2.485  0.3136 -0.0939  0.1487
 1671SOL    HW1 5012   1.098   1.311   2.402  1.7344  1.3386  0.7309
 1671SOL    HW2 5013   0.969   1.363   2.462  0.8617  0.6398 -0.5078
 1672SOL     OW 5014   1.374   4.279   3.595  0.1756  0.5253 -0.4687
 1672SOL    HW1 5015   1.363   4.184   3.590 -1.8273  0.7391 -0.9023
 1672SOL    HW2 5016   1.445   4.291   3.658  1.3906 -1.2782 -1.4233
 1673SOL     OW 5017   1.720   2.566   2.987  0.3253 -0.1780  0.4816
 1673SOL    HW1 5018   1.730   2.659   3.006 -0.0900 -0.1340  0.5054
 1673SOL    HW2 5019   1.780   2.549   2.915 -0.2446  0.3070 -0.1161
 1674SOL     OW 5020   2.977   0.168   3.066  0.4885 -0.2201 -0.2872
 1674SOL    HW1 5021   2.990   0.169   3.161 -1.3078 -1.8901  0.0353
 1674SOL    HW2 5022   2.904   0.228   3.051  0.4194 -0.3694 -0.5569
 1675SOL     OW 5023   2.053   3.361   3.997  0.2382 -0.3807 -0.2559
 1675SOL    HW1 5024   2.081   3.282   4.043 -2.0665 -1.6697 -0.9066
 1675SOL    HW2 5025   1.968   3.382   4.037 -0.1901  0.4704 -1.5736
 1676SOL     OW 5026   2.726   5.385   3.531 -0.1490  0.1235 -0.5197
 1676SOL    HW1 5027   2.747   5.294   3.549 -0.9676 -0.6897 -3.1246
 1676SOL    HW2 5028   2.639   5.397   3.568  1.3141  1.0099  2.9567
 1677SOL     OW 5029   0.172   5.148   2.578  0.4211  0.0120 -0.0374
 1677SOL    HW1 5030   0.134   5.169   2.493  3.0921  0.4325 -1.2175
 1677SOL    HW2 5031   0.223   5.226   2.602  0.9729 -0.6882  1.1862
 1678SOL     OW 5032   2.090   2.418   1.446 -0.0402  0.3360  0.7096
 1678SOL    HW1 5033   2.035   2.487   1.483 -2.0134 -0.6570 -0.1948
 1678SOL    HW2 5034   2.152   2.464   1.390  0.8520  1.5821  2.6455
 1679SOL     OW 5035   1.635   2.745   2.324  0.3904 -0.3304 -0.3518
 1679SOL    HW1 5036   1.557   2.762   2.271 -1.2852 -1.8876  1.4342
 1679SOL    HW2 5037   1.616   2.783   2.409  1.9350 -0.0704 -0.0840
 1680SOL     OW 5038   2.588   1.339   3.593 -0.2188  0.3332 -0.5653
 1680SOL    HW1 5039   2.564   1.387   3.672  0.3681 -0.8780  0.3937
 1680SOL    HW2 5040   2.508   1.334   3.542 -1.3075 -1.0494  1.1548
 1681SOL     OW 5041   4.125   2.925   5.227 -0.2901 -0.1637  0.7842
 1681SOL    HW1 5042   4.075   2.852   5.190  0.7751 -1.1602  1.2321
 1681SOL    HW2 5043   4.063   2.997   5.231 -1.1134 -0.7596 -0.5859
 1682SOL     OW 5044   5.043   3.356   2.630 -0.3178 -1.0564 -0.0488
 1682SOL    HW1 5045   5.000   3.370   2.546 -0.2060  0.1957  0.0709
 1682SOL    HW2 5046   4.971   3.351   2.693 -0.3715 -1.0749 -0.1122
 1683SOL     OW 5047   0.693   2.518   2.537 -0.2990 -0.0463  0.7354
 1683SOL    HW1 5048   0.784   2.517   2.566 -0.6269 -0.9351  1.8116
 1683SOL    HW2 5049   0.670   2.426   2.526 -0.8638  0.1964 -0.2318
 1684SOL     OW 5050   0.937   1.191   5.947 -0.4605 -0.2667  0.4338
 1684SOL    HW1 5051   0.982   1.169   6.028  0.3789  1.4688  0.4725
 1684SOL    HW2 5052   0.923   1.285   5.951 -1.4860 -0.3161 -0.9111
 1685SOL     OW 5053   0.558   4.621   4.506  0.0216 -0.3435  0.1494
 1685SOL    HW1 5054   0.508   4.549   4.467 -1.8513  0.6763  0.5586
 1685SOL    HW2 5055   0.502   4.654   4.577  1.1116  1.1119  0.3888
 1686SOL     OW 5056   4.515   4.050   2.047  0.3660  0.5048  0.3231
 1686SOL    HW1 5057   4.568   3.996   1.988 -0.5728  0.3706 -0.4048
 1686SOL    HW2 5058   4.522   4.139   2.011 -0.3202  0.3990 -0.0779
 1687SOL     OW 5059   5.500   4.137   3.400 -0.2779  0.1545  0.0131
 1687SOL    HW1 5060   5.493   4.155   3.307  0.9636 -1.0323 -0.3422
 1687SOL    HW2 5061   5.580   4.085   3.409  0.3339  1.2979  1.9087
 1688SOL     OW 5062   0.903   5.844   3.013  0.7357  0.0487 -0.6823
 1688SOL    HW1 5063   0.838   5.807   3.072 -0.8500 -0.1194 -2.4514
 1688SOL    HW2 5064   0.972   5.877   3.071 -0.6184 -0.3139  1.2236
 1689SOL     OW 5065   0.796   4.377   5.989  0.1942  0.2456 -0.2089
 1689SOL    HW1 5066   0.731   4.309   6.004 -0.1562  0.0674 -2.3182
 1689SOL    HW2 5067   0.753   4.440   5.931  1.7090  0.3724 -1.2640
 1690SOL     OW 5068   4.844   5.935   4.775 -0.3557  0.1590  0.2505
 1690SOL    HW1 5069   4.926   5.941   4.725 -0.3542 -1.0812  0.0510
 1690SOL    HW2 5070   4.853   5.999   4.845  0.0630  1.2491 -0.7535
 1691SOL     OW 5071   1.755   1.111   1.878  0.1025 -0.8572 -0.1673
 1691SOL    HW1 5072   1.730   1.019   1.884  1.5293 -1.2253  0.6389
 1691SOL    HW2 5073   1.842   1.110   1.838  0.0628  0.1470 -0.3002
 1692SOL     OW 5074   1.456   2.616   3.639 -0.0789  0.0866 -0.3759
 1692SOL    HW1 5075   1.467   2.605   3.545 -0.8176  1.5948 -0.6691
 1692SOL    HW2 5076   1.407   2.539   3.667  1.0742 -0.9102 -1.0188
 1693SOL     OW 5077   0.269   4.446   2.141 -0.5489 -0.1344  0.3471
 1693SOL    HW1 5078   0.260   4.450   2.046 -0.7694  0.7282  0.3944
 1693SOL    HW2 5079   0.321   4.367   2.157  0.6453  0.4222 -0.5783
 1694SOL     OW 5080   4.468   4.580   5.257 -0.4276 -0.1348  0.6277
 1694SOL    HW1 5081   4.478   4.556   5.349 -1.1809 -1.3516  0.4063
 1694SOL    HW2 5082   4.501   4.670   5.252 -3.1117  1.0831  2.6850
 1695SOL     OW 5083   3.636   3.295   0.337 -0.1468 -0.3389 -0.3234
 1695SOL    HW1 5084   3.677   3.256   0.414  2.0196  1.8373 -0.2637
 1695SOL    HW2 5085   3.592   3.373   0.370 -0.2504 -0.0642 -1.0886
 1696SOL     OW 5086   1.412   3.424   4.182  0.2774 -0.2777  0.1273
 1696SOL    HW1 5087   1.329   3.446   4.223 -0.0058 -0.7314 -0.1956
 1696SOL    HW2 5088   1.449   3.509   4.156  0.9396  0.1077  2.1973
 1697SOL     OW 5089   5.474   2.404   2.549  0.2146 -0.9223 -0.0918
 1697SOL    HW1 5090   5.439   2.316   2.539 -1.7965 -0.2363  0.5625
 1697SOL    HW2 5091   5.480   2.417   2.644 -0.6471  0.0581 -0.1582
 1698SOL     OW 5092   3.307   3.592   0.669  0.0946 -0.6980 -0.3664
 1698SOL    HW1 5093   3.396   3.574   0.639  1.3431 -1.0588  3.1019
 1698SOL    HW2 5094   3.310   3.580   0.764 -3.5699 -0.2369 -0.0207
 1699SOL     OW 5095   5.154   3.076   4.163  0.7466  0.2243  0.1050
 1699SOL    HW1 5096   5.214   3.026   4.108  0.8522  2.4413 -1.9405
 1699SOL    HW2 5097   5.074   3.023   4.166  1.2033 -0.5689 -1.1101
 1700SOL     OW 5098   5.625   2.283   3.134 -0.2999 -0.2001 -0.2797
 1700SOL    HW1 5099   5.588   2.371   3.126 -1.5707 -0.6000  0.7229
 1700SOL    HW2 5100   5.575   2.243   3.206  0.7535 -1.4892 -0.2292
 1701SOL     OW 5101   3.308   4.323   4.000 -0.0316 -0.8034  0.3630
 1701SOL    HW1 5102   3.329   4.375   4.077 -0.3646  1.9285 -1.2546
 1701SOL    HW2 5103   3.230   4.273   4.025 -1.0133  1.1202  1.3777
 1702SOL     OW 5104   5.437   2.074   0.552  0.1549 -0.4334 -0.4674
 1702SOL    HW1 5105   5.500   2.066   0.480  1.1730 -1.6252  0.5299
 1702SOL    HW2 5106   5.483   2.043   0.629 -1.1538  0.1591  0.6050
 1703SOL     OW 5107   5.542   1.381   3.425  0.3800  0.5855 -0.0781
 1703SOL    HW1 5108   5.617   1.363   3.481  0.4613 -0.2885 -0.4478
 1703SOL    HW2 5109   5.579   1.425   3.348  0.5773 -0.1999 -0.4403
 1704SOL     OW 5110   2.547   2.850   1.043  0.2689  0.3424  0.2655
 1704SOL    HW1 5111   2.579   2.929   1.086  1.9948 -0.0771 -0.1511
 1704SOL    HW2 5112   2.568   2.779   1.103 -0.3808  0.0894  0.2055
 1705SOL     OW 5113  -0.014   5.494   0.240  0.0504  0.3036 -0.0485
 1705SOL    HW1 5114   0.042   5.553   0.191  0.7149 -0.0595  0.2635
 1705SOL    HW2 5115   0.046   5.444   0.295 -0.7460  1.5198  2.0340
 1706SOL     OW 5116   2.670   4.630   4.403 -0.0722 -0.0470 -0.7235
 1706SOL    HW1 5117   2.583   4.602   4.432  0.6770 -0.3989  1.3883
 1706SOL    HW2 5118   2.696   4.565   4.338 -0.0076 -2.0653  1.1868
 1707SOL     OW 5119   0.464   0.662   0.175  0.3921  0.3813 -0.0780
 1707SOL    HW1 5120   0.405   0.587   0.172  1.2764 -0.3769  0.9736
 1707SOL    HW2 5121   0.409   0.734   0.205 -0.4136  0.1165 -0.8739
 1708SOL     OW 5122   3.268   2.568   1.277  0.3097  0.0271  0.0750
 1708SOL    HW1 5123   3.311   2.504   1.221 -1.3568 -1.0143 -0.1100
 1708SOL    HW2 5124   3.247   2.641   1.219 -0.1093 -0.4172 -0.3435
 1709SOL     OW 5125   0.471   5.539   2.371 -0.1978  0.3716 -0.0548
 1709SOL    HW1 5126   0.558   5.504   2.351 -0.8294 -0.4690 -1.4409
 1709SOL    HW2 5127   0.442   5.579   2.289 -0.7224  1.5551  0.6784
 1710SOL     OW 5128   2.964   0.724   1.574 -0.4242  0.3417  0.3663
 1710SOL    HW1 5129   3.041   0.672   1.554 -0.4527 -0.2674  1.6849
 1710SOL    HW2 5130   2.987   0.771   1.654 -0.6434  1.8620 -0.4450
 1711SOL     OW 5131   1.296   5.839   1.594  0.1558  0.1902 -0.2610
 1711SOL    HW1 5132   1.375   5.848   1.540  0.9634 -0.2811  0.7948
 1711SOL    HW2 5133   1.322   5.871   1.680 -0.1865 -1.7819  0.6464
 1712SOL     OW 5134   1.066   1.663   4.388  0.7090 -0.1818  0.1918
 1712SOL    HW1 5135   1.154   1.696   4.371  0.5567 -0.0774 -0.4185
 1712SOL    HW2 5136   1.069   1.631   4.478  0.6256  2.2891  1.1416
 1713SOL     OW 5137   1.116   4.420   4.730  0.0963 -0.7697  0.4616
 1713SOL    HW1 5138   1.053   4.493   4.732 -0.3768 -1.1787  1.2904
 1713SOL    HW2 5139   1.194   4.457   4.690 -0.9495 -0.4876 -1.4728
 1714SOL     OW 5140   0.351   5.131   1.401  0.1826  0.0890 -0.3237
 1714SOL    HW1 5141   0.275   5.137   1.344 -1.0256 -1.9876  0.9358
 1714SOL    HW2 5142   0.416   5.083   1.350  0.0684  0.4599 -0.8248
 1715SOL     OW 5143   4.468   4.888   2.868 -0.1793 -0.2864 -0.4797
 1715SOL    HW1 5144   4.528   4.901   2.941 -0.4710 -1.4376 -0.0157
 1715SOL    HW2 5145   4.391   4.940   2.891  0.9233  1.9338 -1.5033
 1716SOL     OW 5146   1.752   0.440   0.823 -0.0004 -0.2865  0.0095
 1716SOL    HW1 5147   1.785   0.526   0.796  1.7456 -0.8584  0.1727
 1716SOL    HW2 5148   1.744   0.446   0.918  1.4094 -0.6629  0.1873
 1717SOL     OW 5149   0.025   3.008   0.504  0.7244  0.0691  0.3705
 1717SOL    HW1 5150   0.010   2.914   0.493  1.0021  0.0297  0.3003
 1717SOL    HW2 5151   0.022   3.022   0.598  1.1445 -0.0934  0.4102
 1718SOL     OW 5152   4.360   3.967   1.524 -0.5093  0.9032 -0.4315
 1718SOL    HW1 5153   4.289   3.936   1.581  0.2333 -1.8150 -0.8455
 1718SOL    HW2 5154   4.438   3.923   1.557  0.3482  1.0358 -2.1636
 1719SOL     OW 5155   2.163   5.658   4.424  0.1685  0.6042  0.0010
 1719SOL    HW1 5156   2.180   5.564   4.427  0.3442  0.6544  0.6971
 1719SOL    HW2 5157   2.160   5.679   4.330  0.2107 -0.0760 -0.1562
 1720SOL     OW 5158   0.700   5.992   3.713 -0.3561  0.4582  0.5868
 1720SOL    HW1 5159   0.712   6.021   3.803  0.8364 -0.9266  0.9192
 1720SOL    HW2 5160   0.643   5.916   3.720  0.2079 -0.0099  0.2599
 1721SOL     OW 5161   2.942   5.966   4.288 -0.1739 -0.6399 -0.2799
 1721SOL    HW1 5162   2.853   5.938   4.309 -0.4413  0.3753 -0.0266
 1721SOL    HW2 5163   2.938   5.991   4.195 -0.5954  1.0213  0.1521
 1722SOL     OW 5164   2.650   3.648   3.498 -0.2342  0.3025  0.7242
 1722SOL    HW1 5165   2.701   3.617   3.423 -0.4154 -0.8829  1.0668
 1722SOL    HW2 5166   2.641   3.571   3.554  0.8170  1.3993  2.4957
 1723SOL     OW 5167   5.989   0.237   1.740  0.0175 -0.4970 -0.0069
 1723SOL    HW1 5168   5.964   0.329   1.728 -1.0766 -0.8525 -0.6605
 1723SOL    HW2 5169   5.969   0.219   1.832 -0.6537 -0.3253 -0.1122
 1724SOL     OW 5170   1.914   4.964   3.170 -0.0835 -0.0556  0.2698
 1724SOL    HW1 5171   1.956   5.043   3.206 -1.3692 -0.4312  2.8271
 1724SOL    HW2 5172   1.986   4.902   3.158  0.8286  1.1861 -0.9742
 1725SOL     OW 5173   4.356   3.261   0.462 -0.6057  0.7642  0.0595
 1725SOL    HW1 5174   4.374   3.202   0.535 -0.3973  0.1898 -0.4530
 1725SOL    HW2 5175   4.438   3.265   0.413 -1.1798 -0.0780 -1.0159
 1726SOL     OW 5176   0.284   3.114   4.224  0.1814 -0.5155 -0.3803
 1726SOL    HW1 5177   0.265   3.198   4.265  1.8435 -0.1718 -0.2651
 1726SOL    HW2 5178   0.276   3.131   4.130  1.1981 -0.0431 -0.3870
 1727SOL     OW 5179   0.263   5.005   0.860 -0.4440 -0.2883 -0.3661
 1727SOL    HW1 5180   0.181   4.976   0.820 -0.5069 -0.0208 -0.4394
 1727SOL    HW2 5181   0.270   4.956   0.941 -1.3896  0.6931  0.3423
 1728SOL     OW 5182   4.021   5.704   1.115 -0.7217 -0.1400  0.5517
 1728SOL    HW1 5183   3.981   5.617   1.121  0.3907 -0.8128 -0.9399
 1728SOL    HW2 5184   4.087   5.705   1.184 -1.5983  0.0242  1.3988
 1729SOL     OW 5185   1.765   4.406   2.863 -0.2966 -0.6144 -0.0391
 1729SOL    HW1 5186   1.814   4.343   2.916  0.0268 -0.0682  0.3181
 1729SOL    HW2 5187   1.734   4.471   2.925  0.3277  0.1877 -0.5428
 1730SOL     OW 5188   2.032   5.789   1.698 -0.2079  0.2721 -0.7276
 1730SOL    HW1 5189   2.057   5.697   1.706  0.0223  0.4715  1.1623
 1730SOL    HW2 5190   2.059   5.829   1.780 -0.4468  2.0168 -1.4529
 1731SOL     OW 5191   1.264   0.922   1.541 -0.0525  0.1049  0.1493
 1731SOL    HW1 5192   1.190   0.884   1.589  0.7885  0.9189  2.2282
 1731SOL    HW2 5193   1.228   1.001   1.501 -0.6233 -0.2313 -0.0157
 1732SOL     OW 5194   0.292   5.732   2.678  0.3931 -0.3350 -0.0160
 1732SOL    HW1 5195   0.386   5.725   2.664  0.7772 -1.1497  2.5232
 1732SOL    HW2 5196   0.278   5.823   2.704  0.6071 -0.3995  0.3327
 1733SOL     OW 5197   1.442   2.325   1.929  0.0517 -0.3490  0.1095
 1733SOL    HW1 5198   1.528   2.285   1.920 -0.4576 -1.6776  0.9203
 1733SOL    HW2 5199   1.460   2.417   1.949  1.3113 -0.8100  1.2196
 1734SOL     OW 5200   5.915   4.440   4.380 -0.4267  0.6865  0.0865
 1734SOL    HW1 5201   5.892   4.430   4.473 -1.4667 -2.2329 -0.3623
 1734SOL    HW2 5202   5.833   4.428   4.333  0.5569 -1.5656 -1.2667
 1735SOL     OW 5203   0.756   4.618   3.453 -1.1638  0.3549  0.1813
 1735SOL    HW1 5204   0.696   4.609   3.379 -1.0773 -1.6969  0.3138
 1735SOL    HW2 5205   0.842   4.596   3.418 -0.6208  2.1811  0.2586
 1736SOL     OW 5206   0.119   2.018   2.862 -0.8218  0.1576 -0.3916
 1736SOL    HW1 5207   0.037   1.972   2.848 -1.0097 -0.3785  2.0266
 1736SOL    HW2 5208   0.116   2.092   2.802 -2.2926 -0.7756 -1.5327
 1737SOL     OW 5209   4.939   0.354   1.696 -0.1051  0.5324 -0.3343
 1737SOL    HW1 5210   4.938   0.419   1.626 -0.0816 -0.4608 -1.2866
 1737SOL    HW2 5211   4.852   0.314   1.693 -0.8002  1.7876  1.5018
 1738SOL     OW 5212   3.535   5.216   4.833 -0.6689  0.1535  0.2131
 1738SOL    HW1 5213   3.478   5.174   4.768 -1.4921  0.3192  0.8115
 1738SOL    HW2 5214   3.552   5.303   4.798  1.7869 -0.8941 -1.4878
 1739SOL     OW 5215   1.407   3.489   1.646  0.2956  0.1325 -0.0750
 1739SOL    HW1 5216   1.387   3.540   1.725 -0.6984 -0.4201  0.0415
 1739SOL    HW2 5217   1.480   3.432   1.673  1.7716  1.7938 -0.3537
 1740SOL     OW 5218   4.925   2.993   3.037  0.3656  0.9611 -0.4873
 1740SOL    HW1 5219   5.009   2.969   2.998  0.5961 -0.4887  0.8094
 1740SOL    HW2 5220   4.865   3.001   2.962  1.0034 -0.8390 -1.2501
 1741SOL     OW 5221   0.801   5.683   3.744  0.1040  0.3632 -0.1264
 1741SOL    HW1 5222   0.755   5.749   3.795 -2.3745 -0.6734 -0.8573
 1741SOL    HW2 5223   0.815   5.611   3.805  2.0660  1.1631  0.4482
 1742SOL     OW 5224   0.162   3.795   4.484 -0.0218  0.0032 -0.0845
 1742SOL    HW1 5225   0.206   3.714   4.509 -1.9237 -0.9747  0.3054
 1742SOL    HW2 5226   0.200   3.818   4.399  0.0903 -1.6899 -0.5331
 1743SOL     OW 5227   4.267   2.709   4.317 -0.3132  0.1893  0.5315
 1743SOL    HW1 5228   4.225   2.626   4.339 -1.1045  0.0016 -1.5187
 1743SOL    HW2 5229   4.205   2.753   4.259  0.8648  1.4155  0.1479
 1744SOL     OW 5230   1.104   0.093   5.744  0.5155 -0.0257 -0.1065
 1744SOL    HW1 5231   1.066   0.018   5.790  0.3446 -1.6409 -2.6627
 1744SOL    HW2 5232   1.155   0.139   5.811 -0.8879 -1.3396  1.9795
 1745SOL     OW 5233   2.051   2.066   2.307  0.6986 -0.7865  0.0251
 1745SOL    HW1 5234   2.035   2.121   2.384  2.8451  1.4572 -0.9983
 1745SOL    HW2 5235   2.123   2.009   2.333 -0.0478 -1.6134  0.3469
 1746SOL     OW 5236   5.032   5.468   1.411 -0.9417  0.4981  0.3410
 1746SOL    HW1 5237   4.992   5.460   1.498 -0.7153  1.2441  0.5217
 1746SOL    HW2 5238   5.126   5.461   1.427 -0.9757 -1.4538 -0.1057
 1747SOL     OW 5239   2.357   0.170   4.042  0.1238  0.0719  0.3955
 1747SOL    HW1 5240   2.319   0.223   3.971 -0.7117  0.0467  0.8122
 1747SOL    HW2 5241   2.383   0.233   4.108  2.3363  0.2294 -0.5532
 1748SOL     OW 5242   4.834   5.052   3.273 -0.3683 -0.1979 -0.6283
 1748SOL    HW1 5243   4.820   4.964   3.239 -0.6032 -0.8174  0.9825
 1748SOL    HW2 5244   4.908   5.086   3.222  0.2885 -1.6570 -0.6933
 1749SOL     OW 5245   1.767   4.701   0.549  0.0424 -0.5608  0.1138
 1749SOL    HW1 5246   1.752   4.696   0.454 -0.3205 -0.4685  0.1668
 1749SOL    HW2 5247   1.777   4.610   0.576  0.5149 -0.5675 -0.0707
 1750SOL     OW 5248   5.344   4.190   3.784 -0.2267  0.4074 -0.5661
 1750SOL    HW1 5249   5.401   4.258   3.747  0.5470  1.0152  1.5616
 1750SOL    HW2 5250   5.405   4.121   3.812 -0.5450  0.7679  1.1342
 1751SOL     OW 5251   4.839   3.302   2.822  0.2411 -0.5564 -0.6430
 1751SOL    HW1 5252   4.753   3.344   2.826  0.3202 -0.4805  0.6614
 1751SOL    HW2 5253   4.820   3.211   2.799 -0.2035 -0.5746 -0.2202
 1752SOL     OW 5254   5.640   4.966   2.034 -1.1089 -0.7120  1.0343
 1752SOL    HW1 5255   5.598   4.910   1.969 -1.9327  0.2895  0.6773
 1752SOL    HW2 5256   5.702   5.019   1.984 -0.1950 -1.4216  1.3984
 1753SOL     OW 5257   2.440   5.531   5.179 -0.2081  0.5481  0.1964
 1753SOL    HW1 5258   2.493   5.605   5.207  0.0283  0.4563 -0.0042
 1753SOL    HW2 5259   2.388   5.565   5.107  0.8781  0.1738 -0.7968
 1754SOL     OW 5260   4.078   4.729   2.772 -0.4307  0.7965  0.3145
 1754SOL    HW1 5261   3.983   4.718   2.778 -0.4493  1.4750  1.8164
 1754SOL    HW2 5262   4.111   4.702   2.858  1.0751 -2.1039 -1.0170
 1755SOL     OW 5263   3.073   1.527   4.149  0.4855 -0.1074  0.2294
 1755SOL    HW1 5264   3.154   1.505   4.196  1.1266  0.0321 -0.7794
 1755SOL    HW2 5265   3.098   1.600   4.092 -0.2891 -0.2331 -0.2783
 1756SOL     OW 5266   0.563   3.674   2.387  0.2633 -0.5269  0.0949
 1756SOL    HW1 5267   0.495   3.719   2.437 -1.9218 -4.0169  0.6352
 1756SOL    HW2 5268   0.636   3.664   2.448  0.1986  0.8632  0.4213
 1757SOL     OW 5269   2.232   4.395   1.222 -0.1370  0.2936 -0.1770
 1757SOL    HW1 5270   2.298   4.350   1.275 -1.9286 -0.5568  1.4232
 1757SOL    HW2 5271   2.240   4.487   1.248 -0.4422  0.0045  0.9804
 1758SOL     OW 5272   2.085   3.847   3.251  0.2513  0.3618 -0.0399
 1758SOL    HW1 5273   2.102   3.854   3.157 -1.1546  1.2106 -0.2621
 1758SOL    HW2 5274   2.050   3.759   3.263  1.5946 -0.1987 -0.0927
 1759SOL     OW 5275   4.577   2.239   2.129 -0.0679 -0.3978  0.2510
 1759SOL    HW1 5276   4.551   2.257   2.038  1.1940 -2.3543 -0.5487
 1759SOL    HW2 5277   4.497   2.210   2.172 -0.1749 -2.0053 -0.9708
 1760SOL     OW 5278   3.424   5.839   1.751 -0.0914  0.4617  0.3903
 1760SOL    HW1 5279   3.390   5.875   1.833  0.5830  3.0278 -0.3810
 1760SOL    HW2 5280   3.346   5.811   1.703 -0.5500 -0.1887  1.4687
 1761SOL     OW 5281   5.416   4.823   2.832 -0.5953 -0.6462  0.0473
 1761SOL    HW1 5282   5.369   4.746   2.862  0.3296 -1.1322  0.2797
 1761SOL    HW2 5283   5.348   4.888   2.814 -1.2321 -0.4446  2.8125
 1762SOL     OW 5284   3.197   4.392   2.153  0.2860 -0.5500 -0.0348
 1762SOL    HW1 5285   3.280   4.381   2.200  0.7405  0.0843 -0.6616
 1762SOL    HW2 5286   3.198   4.483   2.125 -1.7319  0.1934  1.9972
 1763SOL     OW 5287   5.842   5.673   1.612 -0.9107  0.0796 -0.5020
 1763SOL    HW1 5288   5.758   5.658   1.653 -0.1549 -3.0473  0.1492
 1763SOL    HW2 5289   5.836   5.628   1.527 -0.6437  1.8578 -1.5131
 1764SOL     OW 5290   1.240   0.138   4.057 -0.2125  0.4360 -0.2450
 1764SOL    HW1 5291   1.167   0.171   4.004 -0.4044  0.4531  0.0269
 1764SOL    HW2 5292   1.255   0.206   4.122 -0.6899 -0.0572  0.3955
 1765SOL     OW 5293   5.422   2.448   2.883 -0.1271  0.7076  0.1344
 1765SOL    HW1 5294   5.403   2.411   2.969  0.9728  1.6132  0.7972
 1765SOL    HW2 5295   5.344   2.498   2.860 -0.3313  0.6665  0.7150
 1766SOL     OW 5296   1.232   1.657   5.496 -0.2656  0.1527 -0.1859
 1766SOL    HW1 5297   1.228   1.724   5.428  0.0541  0.4370  0.0699
 1766SOL    HW2 5298   1.306   1.683   5.551  1.0328 -1.3898 -1.1021
 1767SOL     OW 5299   4.856   2.306   3.689 -0.4209 -0.3128 -0.5309
 1767SOL    HW1 5300   4.903   2.389   3.682 -0.5048 -0.0503  1.4045
 1767SOL    HW2 5301   4.765   2.327   3.667 -0.1596 -0.2557 -1.6169
 1768SOL     OW 5302   0.451   4.718   4.766 -0.1902 -0.1924  0.0594
 1768SOL    HW1 5303   0.380   4.666   4.803  0.7570 -0.8925  0.9259
 1768SOL    HW2 5304   0.456   4.795   4.823  0.3560 -0.6027  0.5798
 1769SOL     OW 5305   1.281   4.596   4.367 -0.1007 -0.2596  0.1931
 1769SOL    HW1 5306   1.335   4.658   4.417  1.3450  0.6335 -2.2731
 1769SOL    HW2 5307   1.241   4.650   4.298  2.0046 -2.0520 -2.6841
 1770SOL     OW 5308   5.809   3.046   2.452 -0.6937  0.4249 -0.0224
 1770SOL    HW1 5309   5.816   2.953   2.435  0.9358  0.8646 -2.1485
 1770SOL    HW2 5310   5.882   3.065   2.512 -1.9287  0.1415  1.6455
 1771SOL     OW 5311   0.790   2.670   1.087  0.1598 -0.5844  0.0441
 1771SOL    HW1 5312   0.860   2.729   1.059  1.3629 -1.3868  1.2266
 1771SOL    HW2 5313   0.728   2.727   1.132 -0.3394  0.2438 -1.5954
 1772SOL     OW 5314   2.146   5.302   0.959  0.4769  0.0226 -0.2023
 1772SOL    HW1 5315   2.203   5.367   0.918  0.1262 -0.1703 -1.0176
 1772SOL    HW2 5316   2.091   5.271   0.888 -0.2911 -0.1790  0.4700
 1773SOL     OW 5317   3.728   3.334   0.094  0.2892 -0.0818 -0.2079
 1773SOL    HW1 5318   3.672   3.401   0.056 -1.6021 -1.6620 -0.4021
 1773SOL    HW2 5319   3.697   3.325   0.184  0.1331 -1.0473 -0.3441
 1774SOL     OW 5320   0.712   3.988   2.493 -0.1059 -0.1513  0.1666
 1774SOL    HW1 5321   0.673   4.043   2.561  3.6110  1.9123  0.8679
 1774SOL    HW2 5322   0.740   4.050   2.425  2.3193 -1.3351 -0.0149
 1775SOL     OW 5323   1.614   5.768   1.988  0.5557 -0.2167 -0.6541
 1775SOL    HW1 5324   1.589   5.860   1.986 -0.1487 -0.4031 -0.6203
 1775SOL    HW2 5325   1.535   5.721   1.962  0.2287 -0.9257  1.4251
 1776SOL     OW 5326   0.951   2.690   0.031 -1.1667  0.0081  0.8591
 1776SOL    HW1 5327   1.010   2.761   0.055 -0.6068 -0.1029 -0.1474
 1776SOL    HW2 5328   0.873   2.734  -0.003 -2.2402  0.1868  3.3272
 1777SOL     OW 5329   4.046   5.451   1.422 -0.2524  0.1164  0.2246
 1777SOL    HW1 5330   4.101   5.529   1.422 -2.0830  1.5296 -1.4963
 1777SOL    HW2 5331   3.978   5.469   1.487 -0.7987  0.0843 -0.3201
 1778SOL     OW 5332   5.796   4.051   2.951  0.0222 -0.5200 -0.0913
 1778SOL    HW1 5333   5.713   4.005   2.938 -0.3605 -0.1008  0.7940
 1778SOL    HW2 5334   5.815   4.091   2.866  0.4667 -2.4527 -0.9379
 1779SOL     OW 5335   1.158   4.393   3.276 -0.0954  0.7267 -0.5452
 1779SOL    HW1 5336   1.253   4.390   3.292 -0.2656 -0.0496  0.3766
 1779SOL    HW2 5337   1.149   4.364   3.185  0.5155  0.3502 -0.4949
 1780SOL     OW 5338   4.121   3.610   2.675 -0.0946 -0.2882 -0.1395
 1780SOL    HW1 5339   4.162   3.537   2.628 -1.0816 -0.5514 -0.6108
 1780SOL    HW2 5340   4.096   3.574   2.760  0.6198 -0.1300  0.1449
 1781SOL     OW 5341   0.176   0.124   2.101  0.7613 -0.6008  0.3399
 1781SOL    HW1 5342   0.226   0.130   2.183  1.6483 -1.5108 -0.1030
 1781SOL    HW2 5343   0.090   0.158   2.123  0.9868 -0.8078  1.6606
 1782SOL     OW 5344   0.364   5.629   1.840  0.2915  0.0695  0.8860
 1782SOL    HW1 5345   0.378   5.613   1.933  1.2774  1.4587  1.0091
 1782SOL    HW2 5346   0.346   5.723   1.834 -1.2016 -0.2570 -0.1840
 1783SOL     OW 5347   0.115   3.369   4.611 -0.3021 -0.0205  0.0446
 1783SOL    HW1 5348   0.084   3.386   4.523 -1.4127  1.7863  0.7233
 1783SOL    HW2 5349   0.081   3.282   4.632 -0.4625 -0.2523 -1.1140
 1784SOL     OW 5350   4.394   3.885   2.250 -0.3031  0.8774 -0.3445
 1784SOL    HW1 5351   4.400   3.940   2.172 -0.3671  0.6608 -0.5035
 1784SOL    HW2 5352   4.442   3.934   2.318  2.0288 -0.1153 -1.1831
 1785SOL     OW 5353   1.725   4.913   0.714  0.2578  0.1767  0.4124
 1785SOL    HW1 5354   1.733   4.853   0.640 -0.0921  1.0802 -0.3674
 1785SOL    HW2 5355   1.648   4.965   0.695  1.4130  1.9236  0.3170
 1786SOL     OW 5356   1.895   3.080   3.261  0.4103 -0.4657 -0.3782
 1786SOL    HW1 5357   1.805   3.052   3.274  0.1198  0.6557  0.1067
 1786SOL    HW2 5358   1.943   3.039   3.333 -0.2183  1.1778  1.0302
 1787SOL     OW 5359   4.123   4.283   3.714  0.0337  0.6695  0.4150
 1787SOL    HW1 5360   4.184   4.254   3.782 -0.9273  1.2347  1.5512
 1787SOL    HW2 5361   4.089   4.367   3.746  0.8230  1.8199 -1.5698
 1788SOL     OW 5362   1.675   3.874   3.565 -0.8238  0.3398 -0.4506
 1788SOL    HW1 5363   1.702   3.785   3.586 -0.8646  0.3369 -0.4076
 1788SOL    HW2 5364   1.723   3.929   3.627  1.6728  0.6593 -2.4977
 1789SOL     OW 5365   4.347   3.353   3.541 -0.1579 -0.2295 -0.0807
 1789SOL    HW1 5366   4.418   3.326   3.598 -0.6342 -0.2376  0.5273
 1789SOL    HW2 5367   4.307   3.427   3.586 -0.8955 -0.5904 -0.1189
 1790SOL     OW 5368   0.206   3.528   2.122 -0.1999  0.5381 -0.2776
 1790SOL    HW1 5369   0.290   3.574   2.130  1.3182 -2.2834  1.8452
 1790SOL    HW2 5370   0.153   3.563   2.194  0.1847  0.4461  0.0577
 1791SOL     OW 5371   5.038   3.220   1.941  0.1497  0.1806 -0.4048
 1791SOL    HW1 5372   5.087   3.141   1.964  1.1590  1.2048  1.1267
 1791SOL    HW2 5373   5.029   3.215   1.846  1.0476 -1.2933 -0.4449
 1792SOL     OW 5374   2.867   3.643   1.708 -0.1489  0.1215  0.0816
 1792SOL    HW1 5375   2.901   3.654   1.619 -1.3137 -0.1575 -0.4082
 1792SOL    HW2 5376   2.791   3.587   1.698 -0.2728  0.0594  1.2706
 1793SOL     OW 5377   0.347   2.314   4.364 -0.0778 -0.2720 -0.2179
 1793SOL    HW1 5378   0.409   2.373   4.320 -0.0273 -1.3705 -1.6689
 1793SOL    HW2 5379   0.264   2.361   4.362 -0.1682 -0.4682 -1.8960
 1794SOL     OW 5380   4.442   3.073   0.669  0.5791  0.7495 -0.4665
 1794SOL    HW1 5381   4.517   3.013   0.680  0.3194  0.5920  0.5389
 1794SOL    HW2 5382   4.366   3.015   0.663  0.3870  0.9565 -0.0494
 1795SOL     OW 5383   0.485   3.353   5.176 -0.6435 -0.3851  0.6121
 1795SOL    HW1 5384   0.550   3.392   5.118 -1.0642  0.8784  0.9566
 1795SOL    HW2 5385   0.401   3.369   5.132 -0.8951 -0.1201  1.1720
 1796SOL     OW 5386   4.647   3.681   5.049 -0.4265 -0.3231 -0.3836
 1796SOL    HW1 5387   4.600   3.690   4.966  0.1966  1.8157 -0.5804
 1796SOL    HW2 5388   4.739   3.683   5.025 -0.2111 -1.8829  0.2143
 1797SOL     OW 5389   4.818   5.036   4.111 -0.3600  0.0144 -0.1270
 1797SOL    HW1 5390   4.847   4.976   4.179 -1.1027 -0.3732 -0.1386
 1797SOL    HW2 5391   4.822   4.984   4.030 -1.8368 -0.3125 -0.0118
 1798SOL     OW 5392   2.256   5.433   2.219 -0.2152  0.3926 -0.4208
 1798SOL    HW1 5393   2.237   5.345   2.253 -0.2996  1.0110  1.2195
 1798SOL    HW2 5394   2.268   5.486   2.297  0.7924  1.6504 -1.3953
 1799SOL     OW 5395   1.389   4.295   5.488 -0.2637  0.0778 -0.3533
 1799SOL    HW1 5396   1.435   4.374   5.517  2.0947 -2.1934  2.8455
 1799SOL    HW2 5397   1.443   4.259   5.418 -0.3973  0.3758 -0.6127
 1800SOL     OW 5398   2.159   4.703   5.330 -0.1530  0.7494  0.1297
 1800SOL    HW1 5399   2.214   4.720   5.254 -2.1293  0.6200 -1.4064
 1800SOL    HW2 5400   2.115   4.620   5.311 -2.7866  2.0388  0.0378
 1801SOL     OW 5401   4.468   3.607   5.899  0.1783 -0.0609  0.2457
 1801SOL    HW1 5402   4.534   3.573   5.960 -0.4871 -1.4504  0.2268
 1801SOL    HW2 5403   4.395   3.545   5.905 -1.3744  1.7096  0.6411
 1802SOL     OW 5404   0.159   2.550   4.984  0.3105  0.3820 -0.4546
 1802SOL    HW1 5405   0.071   2.529   4.954  0.1634 -0.2845  0.4196
 1802SOL    HW2 5406   0.153   2.641   5.013 -0.5269 -0.1555  1.1433
 1803SOL     OW 5407   4.488   0.685   3.073  0.0412 -0.6011 -0.0131
 1803SOL    HW1 5408   4.582   0.689   3.090  0.0716 -1.5253  0.0576
 1803SOL    HW2 5409   4.456   0.616   3.130 -0.9843  0.8442  1.2307
 1804SOL     OW 5410   1.309   4.306   0.659 -0.1981  0.1676  0.1951
 1804SOL    HW1 5411   1.403   4.317   0.644 -0.6463  3.6363 -1.0353
 1804SOL    HW2 5412   1.297   4.330   0.751  0.1705 -0.9486  0.5452
 1805SOL     OW 5413   1.871   3.820   1.147 -0.0647 -0.0546 -0.2832
 1805SOL    HW1 5414   1.876   3.814   1.052 -0.4540 -1.7356 -0.2376
 1805SOL    HW2 5415   1.942   3.764   1.179 -1.0146 -0.9123  0.3883
 1806SOL     OW 5416   0.315   4.439   5.230 -0.5914  0.2437 -0.3163
 1806SOL    HW1 5417   0.364   4.469   5.153  1.3194 -0.8703  0.3818
 1806SOL    HW2 5418   0.283   4.352   5.206 -1.1350  0.4400 -0.3100
 1807SOL     OW 5419   0.809   5.512   2.574  0.3488  1.1535 -0.2382
 1807SOL    HW1 5420   0.784   5.466   2.495  0.0236  1.0137 -0.0589
 1807SOL    HW2 5421   0.877   5.458   2.614 -0.7549  0.2552  0.5133
 1808SOL     OW 5422   5.065   5.998   4.953 -0.5757  0.1558  0.3907
 1808SOL    HW1 5423   5.141   5.978   4.899 -0.8473  0.8321 -0.2534
 1808SOL    HW2 5424   5.030   5.912   4.977  0.7974 -0.1839  1.3193
 1809SOL     OW 5425   1.354   5.178   4.334 -0.1874  0.2075  0.4472
 1809SOL    HW1 5426   1.368   5.208   4.245 -1.3727 -0.5511 -0.0218
 1809SOL    HW2 5427   1.277   5.227   4.364  0.6902  1.0646  1.3607
 1810SOL     OW 5428   4.774   1.113   3.807  0.2099  0.8186 -0.0128
 1810SOL    HW1 5429   4.816   1.028   3.821 -0.7978  0.0842 -1.2871
 1810SOL    HW2 5430   4.761   1.118   3.712 -1.3713  1.6047  0.2189
 1811SOL     OW 5431   5.679   5.486   4.894 -0.1017  0.0071 -0.1162
 1811SOL    HW1 5432   5.594   5.496   4.852 -1.2219 -0.5392  1.8657
 1811SOL    HW2 5433   5.742   5.483   4.822 -1.7574  0.3520 -1.6418
 1812SOL     OW 5434   0.102   5.754   0.052 -0.4789  0.5403 -0.1171
 1812SOL    HW1 5435   0.163   5.699   0.002 -1.5425 -0.2761 -0.5633
 1812SOL    HW2 5436   0.092   5.833  -0.000 -0.9920  0.0117 -0.8436
 1813SOL     OW 5437   4.069   4.619   0.772 -0.4364 -0.1461  0.3976
 1813SOL    HW1 5438   4.049   4.701   0.817 -1.7270 -1.1866  1.8247
 1813SOL    HW2 5439   4.157   4.597   0.801 -0.9604 -0.4082  1.8832
 1814SOL     OW 5440   3.067   4.101   3.372  0.1826 -0.0049 -0.2221
 1814SOL    HW1 5441   2.979   4.140   3.371  0.0877 -0.1054  1.4993
 1814SOL    HW2 5442   3.099   4.116   3.461  1.7121 -0.4350 -0.6734
 1815SOL     OW 5443   5.243   3.460   4.065 -0.4572 -0.2920 -0.1084
 1815SOL    HW1 5444   5.285   3.466   3.979  0.4550  1.2347  0.4056
 1815SOL    HW2 5445   5.306   3.414   4.119  0.0350  0.8689  0.3356
 1816SOL     OW 5446   1.543   5.690   4.420 -0.4440 -0.0905 -0.4359
 1816SOL    HW1 5447   1.538   5.780   4.388  1.0213  0.4027  0.6560
 1816SOL    HW2 5448   1.575   5.639   4.345  0.9888  0.7074 -0.3907
 1817SOL     OW 5449   3.660   4.971   5.862 -0.1771 -0.3047 -0.0064
 1817SOL    HW1 5450   3.609   4.903   5.817  0.3028 -0.7711  0.1421
 1817SOL    HW2 5451   3.746   4.969   5.820  0.0288 -0.2077  0.4014
 1818SOL     OW 5452   5.358   3.908   0.162  0.3152  0.0803  0.8457
 1818SOL    HW1 5453   5.280   3.949   0.122 -0.4544 -1.8968  0.1962
 1818SOL    HW2 5454   5.367   3.952   0.247 -0.7639  1.2052  0.4185
 1819SOL     OW 5455   3.978   1.049   3.287  0.7570  0.0670 -0.0050
 1819SOL    HW1 5456   3.933   0.997   3.221 -1.8222  1.3101  0.6283
 1819SOL    HW2 5457   3.967   0.999   3.368 -0.1871  0.7355  0.2892
 1820SOL     OW 5458   0.682   2.677   3.685  0.1799  0.2471 -0.5513
 1820SOL    HW1 5459   0.752   2.741   3.700 -0.6985  0.8849  1.0638
 1820SOL    HW2 5460   0.628   2.717   3.617  1.1619 -0.0937 -1.5674
 1821SOL     OW 5461   4.022   0.418   0.250  0.7437  0.2888 -0.0364
 1821SOL    HW1 5462   4.050   0.402   0.161  2.5605  1.0992  0.3496
 1821SOL    HW2 5463   3.950   0.356   0.264  2.0787 -1.6437 -1.2150
 1822SOL     OW 5464   1.034   5.019   0.863 -0.0119  0.4446  0.1248
 1822SOL    HW1 5465   1.084   5.079   0.808  1.4369  0.3392  1.2541
 1822SOL    HW2 5466   1.072   4.933   0.846 -3.1519 -0.5837 -2.7365
 1823SOL     OW 5467   4.268   3.312   4.425 -0.1540 -0.4015  0.5475
 1823SOL    HW1 5468   4.323   3.307   4.347  1.5283  0.6049  1.6172
 1823SOL    HW2 5469   4.207   3.383   4.407  0.3907 -0.0059  0.2424
 1824SOL     OW 5470   5.174   4.027   3.949  0.3112 -0.4953  0.2979
 1824SOL    HW1 5471   5.090   4.009   3.907 -1.0252  0.6882  2.2788
 1824SOL    HW2 5472   5.212   4.098   3.897 -0.8940  0.3501  0.5002
 1825SOL     OW 5473   1.583   0.340   1.714  0.3530  0.2624  0.3283
 1825SOL    HW1 5474   1.615   0.329   1.624  1.6036 -2.1556  0.9752
 1825SOL    HW2 5475   1.557   0.432   1.719  0.2299  0.4820 -2.4917
 1826SOL     OW 5476   3.569   0.484   3.746 -0.5087  0.2835  0.1128
 1826SOL    HW1 5477   3.512   0.516   3.816 -0.0671  0.4118  0.4162
 1826SOL    HW2 5478   3.641   0.547   3.743 -0.0858 -0.1938  0.1126
 1827SOL     OW 5479   5.119   1.228   0.754  0.0910 -0.4120 -0.1652
 1827SOL    HW1 5480   5.031   1.209   0.784  0.1163 -1.1004 -0.5120
 1827SOL    HW2 5481   5.173   1.226   0.833 -0.0426 -0.9767 -0.0858
 1828SOL     OW 5482   1.251   4.023   3.555  0.5021  0.4232 -0.9243
 1828SOL    HW1 5483   1.160   4.003   3.577  0.7102 -0.8688 -1.1778
 1828SOL    HW2 5484   1.268   3.974   3.475  1.1295  1.4621 -1.4427
 1829SOL     OW 5485   2.459   2.697   5.195 -0.4561 -0.1942  0.0333
 1829SOL    HW1 5486   2.482   2.788   5.215  0.1657 -0.4090  0.3454
 1829SOL    HW2 5487   2.499   2.680   5.110  1.0722 -0.7283  0.8113
 1830SOL     OW 5488   0.405   4.839   5.629 -0.2827 -0.2220 -0.1765
 1830SOL    HW1 5489   0.499   4.854   5.632 -0.2618 -0.4870  0.9071
 1830SOL    HW2 5490   0.367   4.925   5.614  0.1877 -0.3321 -2.1831
 1831SOL     OW 5491   2.973   0.565   5.443 -0.5164 -0.1499 -0.1910
 1831SOL    HW1 5492   2.890   0.559   5.395 -0.4032 -0.0420 -0.4039
 1831SOL    HW2 5493   2.972   0.652   5.481 -1.4872 -0.9077  1.6533
 1832SOL     OW 5494   1.005   0.284   5.319  0.0048 -0.8991 -0.7246
 1832SOL    HW1 5495   0.912   0.279   5.339  0.1048  1.0148  0.3811
 1832SOL    HW2 5496   1.009   0.330   5.235 -0.0207  1.1554  0.3308
 1833SOL     OW 5497   5.656   0.510   5.475  0.2212  0.7849 -0.0770
 1833SOL    HW1 5498   5.751   0.507   5.475  0.2283  0.9527  0.6695
 1833SOL    HW2 5499   5.633   0.582   5.534 -0.3887 -0.5261  1.3564
 1834SOL     OW 5500   4.416   2.626   4.574  0.0355  0.6064 -1.0233
 1834SOL    HW1 5501   4.352   2.628   4.503  0.0684 -2.9472 -1.3557
 1834SOL    HW2 5502   4.495   2.589   4.535 -0.2084 -2.2734  0.8608
 1835SOL     OW 5503   0.244   5.935   4.323  0.1836 -0.0777 -0.1971
 1835SOL    HW1 5504   0.321   5.988   4.301  0.3073  0.5229  1.5482
 1835SOL    HW2 5505   0.174   5.970   4.267  0.3029  1.8863  0.7874
 1836SOL     OW 5506   1.082   4.254   2.472 -0.1902  0.3937  0.0257
 1836SOL    HW1 5507   1.121   4.308   2.404  0.8128  0.6162  0.7559
 1836SOL    HW2 5508   1.137   4.176   2.476 -1.9659 -1.0552 -1.4418
 1837SOL     OW 5509   0.939   5.092   4.206  0.2299  0.0333  0.3826
 1837SOL    HW1 5510   0.881   5.020   4.181  0.2960  0.0940  0.0396
 1837SOL    HW2 5511   0.963   5.132   4.122  1.6447 -0.6763  0.4240
 1838SOL     OW 5512   3.799   3.136   2.889  0.0890 -0.0540  0.2929
 1838SOL    HW1 5513   3.751   3.076   2.832  1.5530 -0.3600 -0.6835
 1838SOL    HW2 5514   3.806   3.090   2.973 -1.0161 -0.1293  0.3527
 1839SOL     OW 5515   0.035   3.706   0.092 -0.2376  0.6413 -0.4398
 1839SOL    HW1 5516   0.063   3.729   0.181 -0.1702 -1.2347  0.0544
 1839SOL    HW2 5517  -0.009   3.785   0.060  0.7445  1.7567  0.8142
 1840SOL     OW 5518   0.038   3.181   3.378  0.1901  0.1520  0.1417
 1840SOL    HW1 5519   0.032   3.205   3.285  0.9531 -0.8791 -0.1939
 1840SOL    HW2 5520  -0.027   3.237   3.421  0.1799  1.0183 -0.9318
 1841SOL     OW 5521   1.885   0.096   0.330 -0.4977 -0.6678 -0.5520
 1841SOL    HW1 5522   1.790   0.090   0.337 -0.8407  2.0613 -1.5021
 1841SOL    HW2 5523   1.916   0.083   0.420 -1.7023 -2.1141 -0.3094
 1842SOL     OW 5524   0.516   2.432   1.955 -0.0276  0.3646 -0.5179
 1842SOL    HW1 5525   0.570   2.408   1.879 -1.6626  0.4414 -1.7635
 1842SOL    HW2 5526   0.440   2.374   1.950  0.2541 -0.2896  1.6481
 1843SOL     OW 5527   5.201   4.048   2.195 -0.2383  0.1012  0.1000
 1843SOL    HW1 5528   5.284   4.092   2.178 -0.9443  0.9360 -1.3868
 1843SOL    HW2 5529   5.136   4.099   2.146 -1.4089 -1.3501  0.0668
 1844SOL     OW 5530   2.593   5.626   4.419  0.1615 -0.3146 -0.0382
 1844SOL    HW1 5531   2.511   5.656   4.457  0.3392 -1.0750  0.9886
 1844SOL    HW2 5532   2.652   5.617   4.494  0.4901 -1.9663 -0.4560
 1845SOL     OW 5533   0.497   4.528   3.316 -0.7240  0.4482  0.1620
 1845SOL    HW1 5534   0.513   4.580   3.238  1.1045 -1.5938 -0.9173
 1845SOL    HW2 5535   0.470   4.442   3.283  2.0037 -1.0994  1.6303
 1846SOL     OW 5536   3.018   3.462   4.763 -0.6450  0.2409 -0.0164
 1846SOL    HW1 5537   2.993   3.380   4.805  2.4749 -1.1113 -0.5118
 1846SOL    HW2 5538   3.059   3.435   4.681 -1.3761  2.4647 -1.1947
 1847SOL     OW 5539   0.751   1.447   4.673  0.0855 -0.4363  0.1207
 1847SOL    HW1 5540   0.781   1.359   4.698 -0.8430 -0.4319  1.3743
 1847SOL    HW2 5541   0.804   1.506   4.727 -0.9121 -0.3541  1.0443
 1848SOL     OW 5542   2.839   4.475   2.119  0.1898 -0.8858  0.5232
 1848SOL    HW1 5543   2.886   4.500   2.040 -0.1737  1.0942  0.8704
 1848SOL    HW2 5544   2.772   4.413   2.089  1.1513 -1.4943 -0.4197
 1849SOL     OW 5545   0.876   4.034   1.026  0.1557 -0.9069 -0.8092
 1849SOL    HW1 5546   0.935   3.968   0.988 -0.9250 -1.8233 -0.9636
 1849SOL    HW2 5547   0.926   4.115   1.025  2.9073 -2.3181  2.5549
 1850SOL     OW 5548   0.382   5.732   5.639 -0.6272 -0.3072 -0.0451
 1850SOL    HW1 5549   0.404   5.820   5.610 -1.8014 -0.1521 -0.5109
 1850SOL    HW2 5550   0.347   5.688   5.561 -0.0392 -1.2014  0.1739
 1851SOL     OW 5551   3.781   3.996   5.817 -0.2715 -0.0022 -0.7292
 1851SOL    HW1 5552   3.728   3.931   5.770  2.2143 -1.1449 -2.1763
 1851SOL    HW2 5553   3.823   4.047   5.748  1.2584  0.1879  0.3060
 1852SOL     OW 5554   1.005   4.026   0.434 -0.0998  0.4329 -0.1807
 1852SOL    HW1 5555   0.920   3.984   0.427  0.7942 -1.3739 -0.7083
 1852SOL    HW2 5556   1.035   4.038   0.344 -0.1750  1.9384 -0.0381
 1853SOL     OW 5557   1.724   0.883   5.743 -0.0715  0.3988  0.2494
 1853SOL    HW1 5558   1.724   0.951   5.676 -2.0835 -0.7066 -0.9823
 1853SOL    HW2 5559   1.813   0.849   5.743  0.7391  2.3832  0.2706
 1854SOL     OW 5560   2.288   5.400   5.801  0.5401 -0.0445 -0.0233
 1854SOL    HW1 5561   2.318   5.483   5.764 -0.0900 -0.7035 -2.1856
 1854SOL    HW2 5562   2.350   5.335   5.769  1.0762 -0.4441  1.7233
 1855SOL     OW 5563   4.879   5.536   5.324 -0.5313  0.0971 -0.1025
 1855SOL    HW1 5564   4.845   5.613   5.278  2.2107  1.4750 -0.0134
 1855SOL    HW2 5565   4.932   5.491   5.259 -0.3438 -0.5090  0.4627
 1856SOL     OW 5566   4.445   5.402   4.173  0.1310  0.4070 -0.0231
 1856SOL    HW1 5567   4.384   5.339   4.212 -2.1585  1.3257 -1.9025
 1856SOL    HW2 5568   4.515   5.347   4.136 -0.6305 -0.8539  0.3269
 1857SOL     OW 5569   1.992   0.191   3.165 -0.2708 -0.1272 -0.0787
 1857SOL    HW1 5570   2.070   0.246   3.163  1.5943 -2.5974 -0.5181
 1857SOL    HW2 5571   1.969   0.176   3.073 -1.4556  0.7570  0.0444
 1858SOL     OW 5572   2.922   3.557   4.198  0.3295  0.2955  0.2040
 1858SOL    HW1 5573   2.858   3.628   4.194  0.3074  0.3423  1.1730
 1858SOL    HW2 5574   2.875   3.481   4.165  0.1518  0.5843 -0.2256
 1859SOL     OW 5575   0.054   5.110   4.603  0.3021  0.4632  0.5691
 1859SOL    HW1 5576   0.141   5.106   4.643 -0.1394 -3.0676  1.4883
 1859SOL    HW2 5577   0.009   5.033   4.636 -1.8643  0.0153 -2.9474
 1860SOL     OW 5578   5.434   4.256   1.460 -0.0059  0.3087 -0.2718
 1860SOL    HW1 5579   5.349   4.239   1.420 -0.3040 -1.5957  1.0236
 1860SOL    HW2 5580   5.495   4.200   1.412 -0.1326 -0.9634  0.9777
 1861SOL     OW 5581   5.650   5.392   2.812  0.2703  0.1053 -0.0786
 1861SOL    HW1 5582   5.577   5.334   2.834  0.3066  0.3359  0.6579
 1861SOL    HW2 5583   5.728   5.341   2.833  0.3536 -0.4320 -1.5827
 1862SOL     OW 5584   4.307   4.036   1.825 -0.5445 -0.5927  0.2026
 1862SOL    HW1 5585   4.393   4.006   1.855 -0.1591  0.5582  0.2803
 1862SOL    HW2 5586   4.265   4.073   1.903 -0.7457 -0.3177 -0.0349
 1863SOL     OW 5587   3.199   2.824   5.613  0.1139 -0.9268 -0.6962
 1863SOL    HW1 5588   3.201   2.833   5.708  1.8805  1.8584 -0.8985
 1863SOL    HW2 5589   3.272   2.764   5.594  1.9694  1.1176 -0.4016
 1864SOL     OW 5590   1.003   5.015   5.675 -0.1410 -0.3094  0.0366
 1864SOL    HW1 5591   1.084   4.996   5.722  0.2705  2.5432  0.6798
 1864SOL    HW2 5592   1.025   5.003   5.583  0.7076 -0.6016  0.2708
 1865SOL     OW 5593   2.869   1.984   1.810  0.0874  0.3657  0.0309
 1865SOL    HW1 5594   2.933   1.955   1.875 -1.7889 -1.5904  1.1655
 1865SOL    HW2 5595   2.881   1.924   1.736 -0.6183 -0.2757  0.4111
 1866SOL     OW 5596   1.774   1.387   3.528  0.0846 -0.3954 -0.2885
 1866SOL    HW1 5597   1.714   1.313   3.535  1.2337 -1.2950  0.4781
 1866SOL    HW2 5598   1.856   1.355   3.566  0.7360  1.1378 -0.3275
 1867SOL     OW 5599   4.217   1.823   3.501  0.2223  0.4825  0.1052
 1867SOL    HW1 5600   4.312   1.836   3.505  0.2483 -0.0377  1.4768
 1867SOL    HW2 5601   4.200   1.747   3.557 -0.7592 -0.9090 -1.9209
 1868SOL     OW 5602   0.528   4.696   3.107 -0.2622 -0.0917  0.2802
 1868SOL    HW1 5603   0.543   4.638   3.032 -1.4282 -0.7634  0.5430
 1868SOL    HW2 5604   0.437   4.725   3.097 -1.2113 -1.9711  2.6103
 1869SOL     OW 5605   1.841   4.233   4.802  0.5535 -0.1537 -0.3390
 1869SOL    HW1 5606   1.881   4.184   4.729  1.7606  1.0774 -0.5575
 1869SOL    HW2 5607   1.839   4.324   4.771  0.9582  0.3768  1.1004
 1870SOL     OW 5608   0.066   0.800   4.925 -0.4920 -0.4098  0.0668
 1870SOL    HW1 5609   0.060   0.789   4.830  0.0620 -0.3641  0.0236
 1870SOL    HW2 5610  -0.021   0.775   4.958 -0.4529 -1.1659 -0.3788
 1871SOL     OW 5611   0.787   0.193   0.142  0.1605 -0.7030 -0.3080
 1871SOL    HW1 5612   0.808   0.118   0.086 -0.5508  0.2850 -1.9919
 1871SOL    HW2 5613   0.820   0.269   0.094 -2.0145  0.3474 -0.2862
 1872SOL     OW 5614   5.789   5.478   1.909 -0.0506  0.0586  0.9013
 1872SOL    HW1 5615   5.849   5.414   1.870 -0.1315  0.5118 -0.0050
 1872SOL    HW2 5616   5.707   5.430   1.918 -0.7662  0.5943 -1.8566
 1873SOL     OW 5617   4.063   0.712   5.997  1.2155 -0.2151 -0.2803
 1873SOL    HW1 5618   4.119   0.636   6.011  1.7042  0.5748  2.6105
 1873SOL    HW2 5619   4.122   0.779   5.960  0.7214 -1.2126 -3.1088
 1874SOL     OW 5620   0.842   4.493   3.061 -0.3276 -0.0530  0.0999
 1874SOL    HW1 5621   0.890   4.562   3.108 -0.5606 -0.0056  0.2741
 1874SOL    HW2 5622   0.841   4.522   2.970 -0.0527 -0.0392  0.1006
 1875SOL     OW 5623   0.477   1.564   5.368  0.1516 -0.0203  0.5811
 1875SOL    HW1 5624   0.453   1.604   5.452 -0.5359 -0.2674  0.5135
 1875SOL    HW2 5625   0.487   1.639   5.309  1.0370  0.1814  0.9703
 1876SOL     OW 5626   5.788   2.797   5.930 -0.3723  0.1608 -0.3311
 1876SOL    HW1 5627   5.883   2.799   5.943 -0.4988 -0.1408  0.7282
 1876SOL    HW2 5628   5.771   2.707   5.902 -0.1549  0.6890 -2.3155
 1877SOL     OW 5629   1.417   3.862   4.362  0.1319  0.2251 -0.3324
 1877SOL    HW1 5630   1.402   3.949   4.325  0.7245  0.2566 -0.5087
 1877SOL    HW2 5631   1.369   3.802   4.304 -2.4758  0.6212  1.2159
 1878SOL     OW 5632   1.806   2.597   0.641 -0.0916  0.0315  0.4307
 1878SOL    HW1 5633   1.776   2.507   0.626  2.4255 -1.5203  3.3731
 1878SOL    HW2 5634   1.772   2.619   0.728  0.6445  1.3007  0.4193
 1879SOL     OW 5635   1.059   5.953   5.518 -0.3558 -0.0353 -0.3822
 1879SOL    HW1 5636   1.054   6.023   5.583 -0.6369 -1.0777  0.7593
 1879SOL    HW2 5637   1.111   5.885   5.560 -0.0883 -0.5141 -1.4662
 1880SOL     OW 5638   2.855   2.800   4.202  0.4312 -0.2414  0.2720
 1880SOL    HW1 5639   2.824   2.762   4.119 -0.7285  0.4448  0.3805
 1880SOL    HW2 5640   2.801   2.877   4.215  1.9788  0.8201  0.6552
 1881SOL     OW 5641   0.092   0.342   3.186  0.4754 -0.0574  0.0472
 1881SOL    HW1 5642   0.083   0.300   3.272  2.6025  1.4668  1.1238
 1881SOL    HW2 5643   0.124   0.273   3.128  0.7646 -0.6985  0.9497
 1882SOL     OW 5644   4.741   2.287   3.992  0.2516  0.0151  0.4725
 1882SOL    HW1 5645   4.749   2.196   3.964 -1.3283 -0.3959  1.2262
 1882SOL    HW2 5646   4.648   2.299   4.011  0.4492  1.7421  0.5754
 1883SOL     OW 5647   0.863   0.356   4.731 -0.1779  0.0238  0.6476
 1883SOL    HW1 5648   0.889   0.280   4.679 -0.4564  0.4457 -0.1317
 1883SOL    HW2 5649   0.775   0.377   4.700  0.0300  0.8660  0.5998
 1884SOL     OW 5650   0.100   5.686   4.598  0.1468  0.1647  0.3338
 1884SOL    HW1 5651   0.069   5.664   4.510  4.0476  0.5710 -1.3622
 1884SOL    HW2 5652   0.082   5.780   4.606 -0.5344  0.0586  0.1303
 1885SOL     OW 5653   5.161   3.714   1.821  0.3237 -0.2123  0.2078
 1885SOL    HW1 5654   5.178   3.651   1.751 -0.0491 -1.2133  0.9951
 1885SOL    HW2 5655   5.156   3.798   1.776  1.0494 -0.7018 -0.8414
 1886SOL     OW 5656   0.509   4.794   1.534  0.0573 -0.5253  0.0955
 1886SOL    HW1 5657   0.506   4.841   1.617 -1.9698 -0.0973 -0.1769
 1886SOL    HW2 5658   0.584   4.832   1.488 -0.1702  0.8305  0.7974
 1887SOL     OW 5659   0.748   4.838   3.819 -0.4222 -0.1824 -0.4423
 1887SOL    HW1 5660   0.686   4.901   3.782  0.1038  1.4233  1.2720
 1887SOL    HW2 5661   0.832   4.884   3.818 -0.2665 -0.3072  2.0323
 1888SOL     OW 5662   5.460   4.213   2.258 -0.2653 -0.6134 -0.2729
 1888SOL    HW1 5663   5.523   4.248   2.322 -0.2994 -0.4579 -0.3234
 1888SOL    HW2 5664   5.420   4.291   2.219 -3.5462 -0.5889  2.6899
 1889SOL     OW 5665   0.707   3.757   0.984  0.3095  0.3875 -0.3897
 1889SOL    HW1 5666   0.724   3.803   0.902  0.0926  0.1769 -0.5537
 1889SOL    HW2 5667   0.614   3.771   1.001  0.8769  2.8440  1.3006
 1890SOL     OW 5668   0.683   3.354   4.213  0.5370 -0.5064  0.0050
 1890SOL    HW1 5669   0.607   3.395   4.171  0.9695 -0.3614 -0.6448
 1890SOL    HW2 5670   0.670   3.260   4.199 -0.2657 -0.5869  1.1735
 1891SOL     OW 5671   1.801   3.957   5.847 -0.3168 -0.7637 -0.7818
 1891SOL    HW1 5672   1.766   4.007   5.773  0.2219  2.3105  0.8717
 1891SOL    HW2 5673   1.746   3.981   5.921  1.3156 -0.8813  0.5403
 1892SOL     OW 5674   4.372   3.854   1.023  0.5657 -0.6382 -0.3604
 1892SOL    HW1 5675   4.389   3.893   1.109  1.3435 -1.8573  0.0695
 1892SOL    HW2 5676   4.295   3.799   1.037  0.5304 -0.6241 -0.5063
 1893SOL     OW 5677   0.249   5.111   1.738  0.1796 -0.5127 -0.9478
 1893SOL    HW1 5678   0.325   5.090   1.684  1.3238 -0.4516  0.5602
 1893SOL    HW2 5679   0.258   5.205   1.756 -1.3256 -0.0691 -2.3018
 1894SOL     OW 5680   2.885   1.472   1.517  0.2782  0.4291  0.6584
 1894SOL    HW1 5681   2.855   1.498   1.430  0.8706 -0.3938  0.1953
 1894SOL    HW2 5682   2.977   1.499   1.520  0.1041  0.9843  1.2603
 1895SOL     OW 5683   0.962   5.140   4.997 -0.2546 -0.0272  0.2028
 1895SOL    HW1 5684   0.904   5.135   5.073 -0.9233 -1.5909 -0.3791
 1895SOL    HW2 5685   0.914   5.097   4.927 -0.1335  2.3824 -1.4710
 1896SOL     OW 5686   0.650   3.266   4.877 -0.8584 -0.8036 -0.0209
 1896SOL    HW1 5687   0.619   3.179   4.851  0.8895 -0.9000 -2.0218
 1896SOL    HW2 5688   0.707   3.249   4.952 -0.0754 -1.4697 -0.7509
 1897SOL     OW 5689   0.852   5.745   4.324 -0.0977 -0.4164 -0.0269
 1897SOL    HW1 5690   0.845   5.800   4.402  1.3426  2.2434 -1.6595
 1897SOL    HW2 5691   0.782   5.775   4.266 -0.6407 -1.8210 -0.1581
 1898SOL     OW 5692   2.746   4.764   4.623  0.4359 -0.0023  0.0116
 1898SOL    HW1 5693   2.737   4.722   4.537  1.5985  0.8282 -0.5576
 1898SOL    HW2 5694   2.833   4.738   4.653 -0.5281 -1.4914  1.6610
 1899SOL     OW 5695   4.707   5.954   5.587 -0.2018 -0.2941  0.0527
 1899SOL    HW1 5696   4.769   5.903   5.639  0.3200  1.1227  0.8834
 1899SOL    HW2 5697   4.711   6.042   5.625 -3.0213 -0.2251  0.3657
 1900SOL     OW 5698   5.832   5.261   4.766 -0.0215  0.4261 -0.0024
 1900SOL    HW1 5699   5.891   5.226   4.833  1.2164  1.4680 -0.5007
 1900SOL    HW2 5700   5.868   5.348   4.746 -0.9702  0.5519 -1.2664
 1901SOL     OW 5701   0.634   0.302   3.288 -0.8098 -0.5888 -0.1154
 1901SOL    HW1 5702   0.605   0.306   3.197  1.6571 -0.9215 -0.9865
 1901SOL    HW2 5703   0.658   0.210   3.302 -0.3135 -0.3629  0.5790
 1902SOL     OW 5704   1.914   1.483   1.293 -0.0022  0.1943  0.5907
 1902SOL    HW1 5705   1.868   1.540   1.232  3.8098 -0.0081 -2.8825
 1902SOL    HW2 5706   1.878   1.396   1.277  0.1126  0.3397 -0.5391
 1903SOL     OW 5707   5.406   3.191   1.037  0.4602  0.1636 -0.5343
 1903SOL    HW1 5708   5.425   3.281   1.010 -0.6737  0.5103 -0.2334
 1903SOL    HW2 5709   5.332   3.199   1.097  0.6673 -0.9295 -0.1102
 1904SOL     OW 5710   2.737   3.528   2.031 -0.0610  0.3361  0.3888
 1904SOL    HW1 5711   2.747   3.518   2.126  0.4719  1.4700  0.4774
 1904SOL    HW2 5712   2.827   3.533   1.998 -0.2333  1.4889  0.0311
 1905SOL     OW 5713   4.491   4.223   5.570 -0.0286 -0.5323  0.4613
 1905SOL    HW1 5714   4.512   4.147   5.624  3.0324 -0.6121 -0.6181
 1905SOL    HW2 5715   4.466   4.186   5.485  1.4166 -0.4052 -0.0505
 1906SOL     OW 5716   1.385   5.406   1.397 -0.0778 -0.2438  0.3911
 1906SOL    HW1 5717   1.363   5.344   1.466 -2.2435  0.0762  0.0746
 1906SOL    HW2 5718   1.320   5.389   1.328  0.9100  0.6347 -0.8146
 1907SOL     OW 5719   0.765   0.419   3.623  0.2942 -0.4146  0.0958
 1907SOL    HW1 5720   0.821   0.399   3.548  1.2110 -1.9766  1.1203
 1907SOL    HW2 5721   0.679   0.385   3.600  0.0635  0.8146 -0.9660
 1908SOL     OW 5722   1.037   5.667   2.822  0.4546  0.0102 -0.2964
 1908SOL    HW1 5723   0.972   5.717   2.872 -0.4339 -2.1837  0.8684
 1908SOL    HW2 5724   1.110   5.655   2.883  0.8310  0.2027 -0.7023
 1909SOL     OW 5725   1.528   0.650   4.825 -0.0574  0.2582 -0.9100
 1909SOL    HW1 5726   1.463   0.589   4.862  0.4076  1.7078  2.7662
 1909SOL    HW2 5727   1.607   0.597   4.814  0.1378 -0.0935  1.5587
 1910SOL     OW 5728   1.466   3.392   0.188 -0.1962 -0.4033  0.0142
 1910SOL    HW1 5729   1.544   3.342   0.162 -1.2055 -0.7443 -2.7570
 1910SOL    HW2 5730   1.429   3.342   0.261  1.2552 -1.1678  0.2683
 1911SOL     OW 5731   5.085   2.043   2.993  0.5393  0.0830  0.7358
 1911SOL    HW1 5732   5.043   1.974   2.940 -0.7035 -0.9150  2.8827
 1911SOL    HW2 5733   5.036   2.043   3.075  2.2218  1.7334  1.8140
 1912SOL     OW 5734   2.277   4.630   2.780 -0.0986  0.2622 -0.5690
 1912SOL    HW1 5735   2.342   4.571   2.818  0.7403  0.4514 -1.6587
 1912SOL    HW2 5736   2.194   4.599   2.815  0.5937  0.3340  1.2785
 1913SOL     OW 5737   2.421   1.122   3.930  0.3152 -0.4452 -0.1208
 1913SOL    HW1 5738   2.465   1.081   3.855 -0.6108 -0.6780 -0.5467
 1913SOL    HW2 5739   2.456   1.212   3.930  0.7778 -0.6147 -0.4576
 1914SOL     OW 5740   1.503   5.100   3.159 -0.5044  0.4443 -0.2917
 1914SOL    HW1 5741   1.434   5.048   3.117  0.3097 -0.9681  0.0558
 1914SOL    HW2 5742   1.463   5.187   3.170 -2.7021 -0.6230  0.9870
 1915SOL     OW 5743   1.168   4.328   5.330 -0.5159  0.0736 -0.6669
 1915SOL    HW1 5744   1.253   4.303   5.365 -1.3869 -3.7665 -0.8036
 1915SOL    HW2 5745   1.185   4.406   5.277  2.6216  0.1990  0.3465
 1916SOL     OW 5746   0.127   4.930   5.043  0.1133 -0.0870  0.6040
 1916SOL    HW1 5747   0.060   4.953   5.108 -2.3099 -3.0815 -0.5787
 1916SOL    HW2 5748   0.164   4.847   5.076  0.8571 -0.1951 -0.4603
 1917SOL     OW 5749   1.371   5.681   3.622 -0.3689  0.7278  0.6543
 1917SOL    HW1 5750   1.279   5.705   3.615 -0.3580  0.5899 -0.0419
 1917SOL    HW2 5751   1.415   5.732   3.553  0.3193  1.9357  1.9357
 1918SOL     OW 5752   3.585   3.075   1.281  0.2329 -0.1283 -0.0014
 1918SOL    HW1 5753   3.567   3.157   1.327 -1.9912 -0.3484 -0.3414
 1918SOL    HW2 5754   3.537   3.084   1.199 -0.3960 -1.9236  0.1431
 1919SOL     OW 5755   5.922   4.304   5.098  0.8010  0.2782  0.0327
 1919SOL    HW1 5756   5.962   4.370   5.043 -0.1726  0.5174 -0.3984
 1919SOL    HW2 5757   5.844   4.346   5.135  1.6990  0.3137  2.0389
 1920SOL     OW 5758   5.698   0.572   5.875 -0.6140  0.1497  0.3225
 1920SOL    HW1 5759   5.766   0.588   5.941 -0.4555 -0.9693  0.4484
 1920SOL    HW2 5760   5.717   0.484   5.842 -0.9052  0.5481 -0.9683
 1921SOL     OW 5761   2.015   4.840   4.073 -0.5215  0.2546  0.1617
 1921SOL    HW1 5762   1.949   4.880   4.016 -3.4639 -1.1827  2.2919
 1921SOL    HW2 5763   2.060   4.915   4.114 -0.6599  1.2776 -1.4741
 1922SOL     OW 5764   1.805   0.641   5.232  0.3577 -0.6194 -0.5555
 1922SOL    HW1 5765   1.722   0.593   5.237  0.7027 -1.3172 -1.2009
 1922SOL    HW2 5766   1.840   0.619   5.145  0.4247  0.9924 -0.9747
 1923SOL     OW 5767   1.506   2.591   2.009  0.4509 -1.0486  0.4384
 1923SOL    HW1 5768   1.601   2.600   2.012  0.3681  0.2157 -0.1454
 1923SOL    HW2 5769   1.477   2.662   1.952 -0.8748 -1.1901  0.9022
 1924SOL     OW 5770   3.655   0.099   4.672  0.0933 -0.4502  0.4418
 1924SOL    HW1 5771   3.660   0.011   4.709 -0.5862 -0.4410  0.5587
 1924SOL    HW2 5772   3.562   0.119   4.668  0.2247  0.1248  0.0786
 1925SOL     OW 5773   2.611   1.527   2.293  0.5934  0.4109  0.4280
 1925SOL    HW1 5774   2.581   1.444   2.256 -0.9014  1.7186 -1.5050
 1925SOL    HW2 5775   2.688   1.550   2.241  1.5171 -0.1470  1.5260
 1926SOL     OW 5776   5.762   5.935   5.433 -0.0636  0.4846  0.3082
 1926SOL    HW1 5777   5.705   5.939   5.509 -0.4632  0.4495  0.0101
 1926SOL    HW2 5778   5.793   6.024   5.420  0.2282  0.4411  0.6772
 1927SOL     OW 5779   0.545   0.234   0.738  0.3038 -0.3764 -0.0950
 1927SOL    HW1 5780   0.470   0.242   0.679 -0.1386  1.4358  0.6438
 1927SOL    HW2 5781   0.507   0.210   0.822  0.7784 -1.4328 -0.1670
 1928SOL     OW 5782   5.838   1.931   3.688 -0.2240  0.0156  0.3214
 1928SOL    HW1 5783   5.808   2.019   3.663 -0.5297 -0.3010 -0.4399
 1928SOL    HW2 5784   5.933   1.938   3.688 -0.2482  0.6604  1.4308
 1929SOL     OW 5785   0.484   0.833   4.818 -0.8400 -0.3904 -0.0429
 1929SOL    HW1 5786   0.539   0.786   4.755  0.1293 -0.4361  0.8200
 1929SOL    HW2 5787   0.423   0.883   4.763 -0.9651 -1.5318 -0.9971
 1930SOL     OW 5788   5.856   5.249   3.521 -0.1538  0.2765 -0.3166
 1930SOL    HW1 5789   5.876   5.343   3.520 -0.1921  0.2948  0.3367
 1930SOL    HW2 5790   5.941   5.207   3.524 -0.1428  0.3470  2.0188
 1931SOL     OW 5791   2.104   2.272   5.000 -0.1109 -0.0686 -0.1132
 1931SOL    HW1 5792   2.136   2.290   4.912  0.7726 -1.2444 -0.0493
 1931SOL    HW2 5793   2.183   2.254   5.051 -0.3840  2.5423  1.4389
 1932SOL     OW 5794   0.487   0.537   0.549  0.7640 -0.4599 -0.3822
 1932SOL    HW1 5795   0.519   0.584   0.625  0.8695 -0.6952 -0.2806
 1932SOL    HW2 5796   0.554   0.551   0.482  0.6798 -0.2682 -0.4254
 1933SOL     OW 5797   0.409   4.402   4.435 -0.3043 -0.3738  0.2159
 1933SOL    HW1 5798   0.456   4.322   4.457  0.6774  0.4106  1.0895
 1933SOL    HW2 5799   0.381   4.390   4.344  2.0576 -0.6786 -0.5382
 1934SOL     OW 5800   0.816   3.800   5.322  0.0070 -0.0499  0.2547
 1934SOL    HW1 5801   0.739   3.745   5.338 -0.0196  0.3553  1.6222
 1934SOL    HW2 5802   0.889   3.746   5.351  0.1002  0.1357  0.3617
 1935SOL     OW 5803   1.116   3.568   2.797  0.2313  0.0849  0.1902
 1935SOL    HW1 5804   1.050   3.525   2.852 -0.7478  1.5689  0.2171
 1935SOL    HW2 5805   1.152   3.637   2.851  0.9955  0.0263 -0.2329
 1936SOL     OW 5806   1.290   4.633   1.109  0.0205  0.5952  0.4528
 1936SOL    HW1 5807   1.373   4.589   1.094  0.0065  0.6169  0.3168
 1936SOL    HW2 5808   1.314   4.723   1.130  0.0621  0.4775  0.9389
 1937SOL     OW 5809   0.023   3.376   1.186  0.0118  0.3508 -0.4988
 1937SOL    HW1 5810  -0.059   3.358   1.232 -0.5447 -0.2310 -1.6542
 1937SOL    HW2 5811   0.091   3.371   1.253 -0.6501 -1.3595  0.0991
 1938SOL     OW 5812   5.708   4.156   3.766 -0.3725  0.6868  0.1556
 1938SOL    HW1 5813   5.718   4.128   3.857  0.6163 -0.5927 -0.3050
 1938SOL    HW2 5814   5.756   4.239   3.761  0.5125  0.2232  0.5701
 1939SOL     OW 5815   4.654   2.972   4.117 -0.1336  0.4318  0.1910
 1939SOL    HW1 5816   4.600   3.005   4.046  1.5878 -0.4193 -1.6115
 1939SOL    HW2 5817   4.592   2.938   4.181 -1.7589 -0.3960 -1.7202
 1940SOL     OW 5818   1.968   0.429   2.913 -0.1668 -0.5579 -0.1711
 1940SOL    HW1 5819   2.057   0.408   2.885 -0.1580  0.9656 -1.4136
 1940SOL    HW2 5820   1.912   0.372   2.860  0.0077 -0.3439 -0.5907
 1941SOL     OW 5821   1.657   1.461   2.099  0.2289 -0.1061 -0.0200
 1941SOL    HW1 5822   1.572   1.445   2.058  0.6462 -1.0200 -0.5675
 1941SOL    HW2 5823   1.657   1.554   2.119 -1.3314 -0.2672  0.9563
 1942SOL     OW 5824   0.865   4.741   4.391 -0.2720  0.4509 -0.2242
 1942SOL    HW1 5825   0.812   4.793   4.331  1.5115  1.5602 -0.9421
 1942SOL    HW2 5826   0.892   4.665   4.339  1.1995  1.3677 -0.8760
 1943SOL     OW 5827   1.071   2.285   2.778 -0.3571  0.1177  0.5698
 1943SOL    HW1 5828   1.050   2.243   2.861 -1.4722 -1.6743 -0.5312
 1943SOL    HW2 5829   1.143   2.233   2.742 -1.6263 -0.8278 -0.7288
 1944SOL     OW 5830   0.719   5.446   2.885  0.1720  0.3153 -0.0157
 1944SOL    HW1 5831   0.701   5.359   2.851  0.5170  0.0818  0.3858
 1944SOL    HW2 5832   0.700   5.505   2.812  1.1634 -0.1908 -0.7103
 1945SOL     OW 5833   1.442   1.958   2.984 -0.1208 -0.2418  0.0452
 1945SOL    HW1 5834   1.465   1.877   3.029  0.0616 -1.3333 -1.8813
 1945SOL    HW2 5835   1.349   1.951   2.967 -0.5333  0.9075  1.5823
 1946SOL     OW 5836   4.462   4.716   2.478 -0.2980  0.2451  0.1171
 1946SOL    HW1 5837   4.449   4.699   2.385 -0.3553  1.0520 -0.0311
 1946SOL    HW2 5838   4.557   4.726   2.487  0.0737 -2.8422  0.7043
 1947SOL     OW 5839   4.920   1.430   5.208 -0.5856 -0.3890 -0.0335
 1947SOL    HW1 5840   4.961   1.359   5.158 -1.0513 -0.7176  0.0450
 1947SOL    HW2 5841   4.828   1.406   5.211 -1.1898  1.3962 -1.9982
 1948SOL     OW 5842   1.777   0.448   4.688 -0.2902  0.4618  0.1661
 1948SOL    HW1 5843   1.706   0.383   4.691 -0.3713  0.5113 -0.4345
 1948SOL    HW2 5844   1.733   0.530   4.663 -0.0818  0.5847  0.2001
 1949SOL     OW 5845   0.812   5.790   0.133 -0.6164 -0.1578 -0.8716
 1949SOL    HW1 5846   0.822   5.697   0.114  1.1681 -0.5139  1.3484
 1949SOL    HW2 5847   0.743   5.794   0.199 -0.7401  0.1133 -1.0153
 1950SOL     OW 5848   5.090   2.754   0.795 -0.3691  0.2372 -0.2836
 1950SOL    HW1 5849   5.185   2.756   0.794 -0.3579  2.1842  0.4913
 1950SOL    HW2 5850   5.068   2.661   0.808  1.3020 -0.7068 -3.2943
 1951SOL     OW 5851   0.296   0.505   4.812 -0.2123 -0.2523 -0.2055
 1951SOL    HW1 5852   0.287   0.573   4.879  0.4169  1.0069 -1.3279
 1951SOL    HW2 5853   0.256   0.544   4.734  0.6733 -0.9525 -1.0257
 1952SOL     OW 5854   1.141   5.656   5.347  0.0489  0.1109  0.3890
 1952SOL    HW1 5855   1.147   5.717   5.421 -0.5187 -0.1341  0.6376
 1952SOL    HW2 5856   1.232   5.635   5.326  0.2174  0.3109  0.9061
 1953SOL     OW 5857   4.226   3.594   3.659 -0.6171 -0.2686 -0.2370
 1953SOL    HW1 5858   4.147   3.600   3.605 -0.4708 -0.4637 -0.4774
 1953SOL    HW2 5859   4.260   3.684   3.661 -1.9174  0.2276  1.5307
 1954SOL     OW 5860   0.966   3.620   1.274  0.1189 -0.2404  0.7807
 1954SOL    HW1 5861   0.996   3.706   1.245  0.8655  0.3801  3.2140
 1954SOL    HW2 5862   1.042   3.581   1.317  0.1927 -2.7047 -1.2893
 1955SOL     OW 5863   1.131   4.417   4.190 -0.2032  1.1122 -0.2958
 1955SOL    HW1 5864   1.170   4.453   4.270  0.7473 -0.9380  0.2278
 1955SOL    HW2 5865   1.134   4.489   4.127  3.2274  1.4832  0.1321
 1956SOL     OW 5866   0.531   5.956   2.099  0.6005 -0.7450 -0.1337
 1956SOL    HW1 5867   0.595   5.939   2.030  1.5478  0.0086  0.5325
 1956SOL    HW2 5868   0.482   6.033   2.068  0.6457 -0.7501 -0.2176
 1957SOL     OW 5869   5.511   5.537   4.680  0.5859  0.2068 -0.2349
 1957SOL    HW1 5870   5.470   5.607   4.731  0.8147  1.4807 -1.7149
 1957SOL    HW2 5871   5.438   5.491   4.639  0.3853 -0.9777  1.3518
 1958SOL     OW 5872   5.869   4.648   5.694  0.0134  0.3439  0.0104
 1958SOL    HW1 5873   5.949   4.697   5.715 -0.5943 -0.0010  4.0206
 1958SOL    HW2 5874   5.819   4.707   5.638  2.0778  1.5118 -0.7217
 1959SOL     OW 5875   1.124   2.311   5.314  0.2578 -0.3113 -0.1163
 1959SOL    HW1 5876   1.138   2.224   5.277 -1.0791 -1.4369  1.8652
 1959SOL    HW2 5877   1.041   2.339   5.277  0.2316 -0.2667 -0.0220
 1960SOL     OW 5878   0.863   5.796   4.023  0.4437 -0.6516  0.1409
 1960SOL    HW1 5879   0.934   5.832   4.077  0.8621 -0.5013 -0.5060
 1960SOL    HW2 5880   0.800   5.868   4.017  0.2697 -0.7561  0.6445
 1961SOL     OW 5881   2.761   4.334   0.914  0.4651 -0.3816  0.6563
 1961SOL    HW1 5882   2.776   4.419   0.871 -0.1781 -0.9828 -0.8251
 1961SOL    HW2 5883   2.848   4.302   0.935  0.7623  0.2635  0.4438
 1962SOL     OW 5884   0.948   3.098   0.941 -0.0940 -0.1682  0.2308
 1962SOL    HW1 5885   0.854   3.079   0.932  0.2554 -2.7186  1.2037
 1962SOL    HW2 5886   0.952   3.193   0.953 -2.4348  0.1700 -0.9919
 1963SOL     OW 5887   0.580   3.436   4.654  0.4602  0.6172 -0.0421
 1963SOL    HW1 5888   0.660   3.452   4.605 -0.6355  0.9515 -1.8164
 1963SOL    HW2 5889   0.606   3.376   4.724  1.9509 -0.5529 -1.5132
 1964SOL     OW 5890   5.541   5.968   2.414  1.0565 -0.4833  0.7654
 1964SOL    HW1 5891   5.473   5.956   2.347  2.2568 -1.7325 -0.2837
 1964SOL    HW2 5892   5.532   5.891   2.471  1.5393 -0.6073  0.6743
 1965SOL     OW 5893   1.532   2.658   1.394  0.1337  0.1215 -0.6766
 1965SOL    HW1 5894   1.472   2.732   1.407  2.0415  1.4635  0.9553
 1965SOL    HW2 5895   1.515   2.600   1.468  1.0373  0.6655 -0.0290
 1966SOL     OW 5896   5.526   2.203   4.374 -0.3468  0.1403  0.3223
 1966SOL    HW1 5897   5.604   2.154   4.399 -0.6056 -0.1466  0.5718
 1966SOL    HW2 5898   5.560   2.282   4.331  0.0720 -0.9327 -1.4348
 1967SOL     OW 5899   1.026   3.795   3.293 -0.5189  0.2631 -0.4826
 1967SOL    HW1 5900   1.065   3.750   3.368 -3.2463  2.0977  2.2811
 1967SOL    HW2 5901   0.934   3.770   3.296 -0.8422  0.9062 -2.9310
 1968SOL     OW 5902   1.768   3.141   4.904  0.3312 -0.9333  0.2039
 1968SOL    HW1 5903   1.728   3.228   4.908  0.3230 -0.9332  0.1335
 1968SOL    HW2 5904   1.739   3.106   4.819  1.3001 -0.5329 -0.3079
 1969SOL     OW 5905   0.905   0.383   5.970 -0.8238 -0.0391 -0.1178
 1969SOL    HW1 5906   0.884   0.449   6.036  0.5933 -0.6660  1.0196
 1969SOL    HW2 5907   0.957   0.429   5.905 -1.2508  0.3210 -0.2085
 1970SOL     OW 5908   0.715   5.416   5.797 -0.6768  0.1395 -0.2495
 1970SOL    HW1 5909   0.707   5.403   5.702 -1.4088  0.4314 -0.2392
 1970SOL    HW2 5910   0.670   5.499   5.813  1.1291  1.0906  0.1005
 1971SOL     OW 5911   1.943   2.536   4.043  0.0754 -0.1716 -0.2160
 1971SOL    HW1 5912   2.027   2.582   4.046 -0.3698  0.6988 -0.5924
 1971SOL    HW2 5913   1.952   2.464   4.105  1.7248 -1.1581 -1.5337
 1972SOL     OW 5914   1.825   0.053   2.373 -0.9712  0.0556 -0.2031
 1972SOL    HW1 5915   1.746   0.105   2.389  0.0114  2.4721 -2.5339
 1972SOL    HW2 5916   1.897   0.111   2.397  0.1659 -0.6495 -1.7558
 1973SOL     OW 5917   0.375   2.973   4.939 -0.0698 -0.5164  0.0804
 1973SOL    HW1 5918   0.444   2.982   4.874 -1.0838  1.7091 -0.7799
 1973SOL    HW2 5919   0.321   3.051   4.928 -0.8446 -0.5352  2.9622
 1974SOL     OW 5920   2.086   0.910   4.789  0.0935  0.0411 -0.0632
 1974SOL    HW1 5921   2.007   0.906   4.843  1.1068  2.0170  1.6903
 1974SOL    HW2 5922   2.090   1.000   4.757  2.1242  0.3162  0.7654
 1975SOL     OW 5923   5.444   3.774   1.888  0.2295  0.2700  0.4679
 1975SOL    HW1 5924   5.470   3.777   1.796 -1.0980 -1.5551 -0.0339
 1975SOL    HW2 5925   5.352   3.745   1.886  0.2204  0.0442  2.3599
 1976SOL     OW 5926   2.538   0.817   5.309  0.6242  0.0997  0.2905
 1976SOL    HW1 5927   2.500   0.793   5.225  0.0371 -0.0472  0.5947
 1976SOL    HW2 5928   2.495   0.761   5.373 -0.0049  1.2144  0.8743
 1977SOL     OW 5929   1.223   0.037   0.476  0.1209 -0.1429  0.4995
 1977SOL    HW1 5930   1.142   0.045   0.426  0.7083 -0.6397 -0.5866
 1977SOL    HW2 5931   1.279   0.107   0.441  0.6486 -0.6899  0.2388
 1978SOL     OW 5932   0.071   3.452   2.854 -0.0447 -0.6731  0.2825
 1978SOL    HW1 5933   0.164   3.460   2.835 -0.5331  1.0007 -1.8493
 1978SOL    HW2 5934   0.050   3.530   2.905 -0.6399  0.2135 -1.2289
 1979SOL     OW 5935   2.953   2.269   2.911  0.1993 -0.0809 -0.0116
 1979SOL    HW1 5936   3.023   2.318   2.954 -0.4890  1.3105 -0.4193
 1979SOL    HW2 5937   2.982   2.178   2.915  1.3556  0.3005  1.0846
 1980SOL     OW 5938   1.167   2.547   4.253  0.1666 -0.9137 -0.0257
 1980SOL    HW1 5939   1.079   2.572   4.224  1.3177  0.5167 -2.6417
 1980SOL    HW2 5940   1.169   2.452   4.245 -1.6760 -1.2006  1.9386
 1981SOL     OW 5941   0.680   0.670   5.297  0.5304  0.6624  0.4785
 1981SOL    HW1 5942   0.608   0.607   5.305  1.5077 -0.5879 -0.0849
 1981SOL    HW2 5943   0.670   0.707   5.209  0.4611  0.6409  0.4776
 1982SOL     OW 5944   2.229   2.826   3.914  0.0321 -0.1573 -0.0177
 1982SOL    HW1 5945   2.150   2.840   3.862  0.2313 -3.1525 -1.3733
 1982SOL    HW2 5946   2.207   2.753   3.973  0.7483  1.2388  2.0990
 1983SOL     OW 5947   2.260   1.789   1.745 -1.6644  0.2749  0.0592
 1983SOL    HW1 5948   2.287   1.766   1.656 -0.6519  1.8428 -0.0790
 1983SOL    HW2 5949   2.317   1.862   1.769 -1.8021 -0.2237  2.0693
 1984SOL     OW 5950   5.243   0.445   0.115  0.2088  0.7567 -0.4279
 1984SOL    HW1 5951   5.249   0.360   0.071  0.7308 -0.0807  1.1659
 1984SOL    HW2 5952   5.288   0.506   0.057  0.4198 -0.1877 -1.2865
 1985SOL     OW 5953   5.853   5.662   5.867  0.4249  0.1792 -0.1415
 1985SOL    HW1 5954   5.778   5.656   5.808 -0.1900  1.0351  0.5273
 1985SOL    HW2 5955   5.891   5.748   5.850  0.1238  0.5189  0.8214
 1986SOL     OW 5956   3.238   3.967   2.522 -0.1688  0.3799 -0.8409
 1986SOL    HW1 5957   3.191   4.015   2.590  1.3880 -0.9876  1.3227
 1986SOL    HW2 5958   3.170   3.913   2.481 -0.7974 -0.7385  1.4778
 1987SOL     OW 5959   1.206   4.884   3.407 -0.0025  0.3736  0.6107
 1987SOL    HW1 5960   1.281   4.886   3.465  0.3702  1.4725  0.1303
 1987SOL    HW2 5961   1.135   4.847   3.459  0.6766  0.0334  1.3028
 1988SOL     OW 5962   4.921   5.320   0.077 -0.0373  0.2280  0.3110
 1988SOL    HW1 5963   4.908   5.411   0.103 -1.8310 -0.1748  0.9269
 1988SOL    HW2 5964   4.963   5.326  -0.009 -2.4446  1.6945 -0.8849
 1989SOL     OW 5965   1.503   4.760   3.243  0.1488 -0.3303  0.3308
 1989SOL    HW1 5966   1.469   4.700   3.308  0.3589 -0.3005  0.4708
 1989SOL    HW2 5967   1.517   4.842   3.291 -0.2090 -0.1475  0.1251
 1990SOL     OW 5968   0.118   2.218   5.823 -0.0791  0.0840 -0.2408
 1990SOL    HW1 5969   0.067   2.271   5.763  0.4366  0.6839 -0.1703
 1990SOL    HW2 5970   0.209   2.228   5.793  0.1386  0.0658  0.3844
 1991SOL     OW 5971   4.705   2.238   3.283  0.1054  0.0296 -0.0941
 1991SOL    HW1 5972   4.618   2.219   3.249  0.2641  1.9036 -1.6988
 1991SOL    HW2 5973   4.716   2.332   3.270  1.2868  0.4006  2.7220
 1992SOL     OW 5974   1.585   3.720   4.838 -0.4319 -0.2069 -0.1497
 1992SOL    HW1 5975   1.585   3.791   4.773  0.9099 -1.6346 -1.8027
 1992SOL    HW2 5976   1.666   3.733   4.887  0.1971 -0.9964 -0.9555
 1993SOL     OW 5977   1.941   4.720   4.340 -0.1070 -0.4364 -0.4825
 1993SOL    HW1 5978   1.896   4.756   4.417  0.9732 -0.2055  0.0642
 1993SOL    HW2 5979   1.909   4.773   4.267 -1.5655 -1.0116 -0.3091
 1994SOL     OW 5980   0.619   3.391   3.913 -0.3788 -0.2677 -0.1544
 1994SOL    HW1 5981   0.708   3.412   3.940 -0.4496  0.3202 -0.3663
 1994SOL    HW2 5982   0.619   3.403   3.818 -0.2731 -1.8009 -0.3690
 1995SOL     OW 5983   0.058   4.898   0.736  0.4873 -0.5750  0.0890
 1995SOL    HW1 5984   0.006   4.887   0.816  0.3483 -1.4566 -0.1074
 1995SOL    HW2 5985   0.063   4.810   0.699 -0.3579 -0.0222 -1.4315
 1996SOL     OW 5986   0.284   0.396   3.804  0.7266  0.0637  0.1295
 1996SOL    HW1 5987   0.278   0.485   3.770  1.0374 -0.4115 -1.2175
 1996SOL    HW2 5988   0.293   0.341   3.726  0.5123 -1.1509  0.9409
 1997SOL     OW 5989   3.124   4.845   0.301 -0.2032 -0.1625 -0.1884
 1997SOL    HW1 5990   3.036   4.811   0.318  0.0566 -0.4915  0.5503
 1997SOL    HW2 5991   3.182   4.774   0.329  0.3197  0.4269  0.2171
 1998SOL     OW 5992   4.769   4.188   3.632  0.0387 -0.0218 -0.1909
 1998SOL    HW1 5993   4.774   4.283   3.635 -0.7513  0.0656  3.5229
 1998SOL    HW2 5994   4.682   4.167   3.665  0.2095 -2.0550 -0.8781
 1999SOL     OW 5995   5.471   4.474   2.168  0.3782  0.1105 -0.4924
 1999SOL    HW1 5996   5.493   4.521   2.248 -2.1149  2.2744 -0.9688
 1999SOL    HW2 5997   5.528   4.512   2.101  0.2756  0.5223 -0.3475
 2000SOL     OW 5998   5.744   4.629   5.009  0.1139 -0.1021  0.0231
 2000SOL    HW1 5999   5.837   4.608   5.000  0.4369  1.2580 -0.1224
 2000SOL    HW2 6000   5.742   4.697   5.077 -0.7971 -0.2779  0.1807
 2001SOL     OW 6001   0.024   0.044   5.612 -0.1613  0.0623  0.2701
 2001SOL    HW1 6002   0.067   0.015   5.531 -0.6601  0.3462 -0.1062
 2001SOL    HW2 6003  -0.039  -0.024   5.631 -1.0145  0.6520 -0.3602
 2002SOL     OW 6004   1.824   0.656   2.296  0.0715 -0.4584  0.1911
 2002SOL    HW1 6005   1.807   0.739   2.250  0.3719 -0.0185  0.8676
 2002SOL    HW2 6006   1.896   0.676   2.356 -0.0221 -1.1512  0.5399
 2003SOL     OW 6007   5.153   1.942   3.348 -0.0099  0.2276  0.3187
 2003SOL    HW1 6008   5.247   1.957   3.354  0.2219 -0.4466 -1.1814
 2003SOL    HW2 6009   5.116   2.027   3.324  0.4562  0.0761 -1.0081
 2004SOL     OW 6010   1.391   5.390   5.316  0.4275  0.0267 -0.0553
 2004SOL    HW1 6011   1.325   5.332   5.354  0.9564  0.8083  2.1852
 2004SOL    HW2 6012   1.465   5.333   5.297  0.2452 -0.3509  0.3436
 2005SOL     OW 6013   3.843   5.751   5.548 -0.3358 -0.6069 -0.1400
 2005SOL    HW1 6014   3.898   5.829   5.548 -0.3615 -0.5788  0.4908
 2005SOL    HW2 6015   3.769   5.774   5.605 -0.3598 -1.0725  0.0257
 2006SOL     OW 6016   4.100   3.985   4.323  0.4255  0.2305  0.0359
 2006SOL    HW1 6017   4.195   3.976   4.322  0.3846 -0.4996  1.1657
 2006SOL    HW2 6018   4.082   4.060   4.266  1.5082 -0.9246 -1.9321
 2007SOL     OW 6019   1.910   0.693   3.862 -0.0757 -0.2577  0.0738
 2007SOL    HW1 6020   1.832   0.747   3.854 -0.3923 -0.5973  0.7452
 2007SOL    HW2 6021   1.982   0.751   3.837 -0.6637 -0.3984 -2.1285
 2008SOL     OW 6022   5.705   2.223   2.256  0.7158 -0.4741 -0.2471
 2008SOL    HW1 6023   5.705   2.166   2.333 -0.7039  0.0700  0.1772
 2008SOL    HW2 6024   5.721   2.311   2.291 -2.2013  0.1393 -0.2164
 2009SOL     OW 6025   1.249   1.446   5.678  0.2362 -0.2075  0.3343
 2009SOL    HW1 6026   1.243   1.522   5.621  0.6756  0.1133  0.7062
 2009SOL    HW2 6027   1.164   1.403   5.670  0.4151 -0.3867 -0.8501
 2010SOL     OW 6028   0.339   0.932   5.210  0.1927  0.4862  0.3090
 2010SOL    HW1 6029   0.324   1.016   5.166 -1.0682  0.1252  0.0133
 2010SOL    HW2 6030   0.367   0.956   5.298  0.8014  1.2163 -0.0751
 2011SOL     OW 6031   0.755   3.731   3.317 -0.7313 -0.4097 -0.3035
 2011SOL    HW1 6032   0.697   3.804   3.342 -1.2259 -1.0626  0.4671
 2011SOL    HW2 6033   0.699   3.654   3.322 -0.0030 -0.9441 -0.3843
 2012SOL     OW 6034   0.425   5.978   5.527  0.0102  0.1218  0.2549
 2012SOL    HW1 6035   0.380   5.996   5.445 -2.4022 -1.5880  1.0634
 2012SOL    HW2 6036   0.518   5.986   5.506 -0.5268  0.1398 -2.5311
 2013SOL     OW 6037   1.577   5.558   4.112 -0.6744 -0.5591 -0.0114
 2013SOL    HW1 6038   1.607   5.582   4.024 -1.0431 -0.8777 -0.2288
 2013SOL    HW2 6039   1.498   5.610   4.124 -0.6600 -0.5662  0.1061
 2014SOL     OW 6040   3.354   3.650   5.677 -0.6846 -0.3142 -0.0205
 2014SOL    HW1 6041   3.316   3.637   5.590  0.7259 -0.5117 -0.6359
 2014SOL    HW2 6042   3.279   3.668   5.734 -1.6719 -0.6316 -1.1875
 2015SOL     OW 6043   1.775   1.885   0.215  0.5822 -0.5226  0.2937
 2015SOL    HW1 6044   1.687   1.891   0.176  0.8610  0.7988 -0.1864
 2015SOL    HW2 6045   1.762   1.836   0.296 -0.9302  1.2162  1.1644
 2016SOL     OW 6046   5.137   5.310   5.324  0.2900 -0.4416  0.0719
 2016SOL    HW1 6047   5.131   5.359   5.242 -0.4179  0.7655  0.8169
 2016SOL    HW2 6048   5.080   5.234   5.311  0.8890 -0.7520 -0.8670
 2017SOL     OW 6049   2.852   5.497   0.708  0.3712  0.9687  0.3552
 2017SOL    HW1 6050   2.810   5.564   0.654  0.0127  0.0519 -0.5437
 2017SOL    HW2 6051   2.929   5.471   0.657  0.0692  0.1398  0.3091
 2018SOL     OW 6052   1.683   5.893   3.926 -0.2897  0.5435 -0.7967
 2018SOL    HW1 6053   1.635   5.812   3.908  0.2029  0.1528 -0.3864
 2018SOL    HW2 6054   1.618   5.952   3.963 -0.0154 -0.8142  2.1879
 2019SOL     OW 6055   1.634   3.227   0.904 -0.2812 -0.5404 -0.4018
 2019SOL    HW1 6056   1.720   3.189   0.922  0.4673  0.8611 -0.8232
 2019SOL    HW2 6057   1.625   3.224   0.809  0.5094  1.7068 -0.5979
 2020SOL     OW 6058   0.198   2.844   1.443  0.1724  0.1941 -0.4722
 2020SOL    HW1 6059   0.130   2.881   1.386 -0.6071  1.1062  0.9998
 2020SOL    HW2 6060   0.249   2.919   1.471 -1.1215  0.1933  2.1545
 2021SOL     OW 6061   0.754   0.697   4.720 -0.2662  0.1889  0.0040
 2021SOL    HW1 6062   0.768   0.791   4.730 -0.1030  0.2854 -1.0407
 2021SOL    HW2 6063   0.756   0.663   4.810 -2.2924  1.4358  0.5839
 2022SOL     OW 6064   0.918   3.653   5.697 -0.3193  0.1737 -0.2956
 2022SOL    HW1 6065   0.933   3.637   5.604  0.6876 -1.3927  0.0958
 2022SOL    HW2 6066   0.912   3.748   5.705  1.3767  0.4441 -1.7032
 2023SOL     OW 6067   4.623   3.502   4.711  0.2185 -0.3520  0.1595
 2023SOL    HW1 6068   4.648   3.594   4.703 -1.4609  0.0010 -1.9945
 2023SOL    HW2 6069   4.599   3.491   4.803 -0.9019  1.7512  0.1652
 2024SOL     OW 6070   1.867   2.812   4.829  0.0618  0.1713  0.1188
 2024SOL    HW1 6071   1.865   2.908   4.828  1.7920  0.2417  0.3938
 2024SOL    HW2 6072   1.952   2.789   4.792 -0.2892 -1.2635  0.1310
 2025SOL     OW 6073   0.814   5.014   4.800  0.0514  0.8113  0.1606
 2025SOL    HW1 6074   0.755   4.999   4.875  0.5617  0.5394  0.5124
 2025SOL    HW2 6075   0.770   4.970   4.727 -0.4121  1.0085  0.3111
 2026SOL     OW 6076   1.838   0.096   5.694 -0.2327 -0.0191  0.2432
 2026SOL    HW1 6077   1.749   0.060   5.701  0.0752 -1.0377 -0.7681
 2026SOL    HW2 6078   1.888   0.049   5.761 -0.9110  2.2285  2.4771
 2027SOL     OW 6079   5.876   2.966   5.356  0.3861  0.3946  0.5021
 2027SOL    HW1 6080   5.804   2.915   5.393 -0.2326  1.0564  0.2402
 2027SOL    HW2 6081   5.861   3.055   5.389  0.0142  0.9272 -1.0344
 2028SOL     OW 6082   5.336   4.690   4.806  0.1534  0.1591  0.1514
 2028SOL    HW1 6083   5.274   4.632   4.761  1.2100 -0.3847 -0.6346
 2028SOL    HW2 6084   5.298   4.702   4.893 -1.4511  0.4639 -0.5468
 2029SOL     OW 6085   0.965   3.990   5.912 -0.6695  0.0085  0.0934
 2029SOL    HW1 6086   0.974   4.075   5.957 -0.2666 -0.6272  1.2723
 2029SOL    HW2 6087   0.932   3.932   5.980  1.0731 -1.2788 -0.0917
 2030SOL     OW 6088   5.881   4.831   4.377  0.8014 -0.3977  0.0450
 2030SOL    HW1 6089   5.955   4.820   4.317  0.4861 -0.3002 -0.3624
 2030SOL    HW2 6090   5.859   4.924   4.373 -0.4179 -0.7068 -1.1273
 2031SOL     OW 6091   2.155   5.158   3.003  0.3689 -0.6722 -0.3081
 2031SOL    HW1 6092   2.081   5.211   2.972  0.2724  0.2782  1.4361
 2031SOL    HW2 6093   2.148   5.160   3.098  1.3897 -2.4095 -0.1603
 2032SOL     OW 6094   5.732   2.871   0.647  0.4850  0.8574 -0.1238
 2032SOL    HW1 6095   5.657   2.921   0.616 -0.4428 -0.1407  0.4646
 2032SOL    HW2 6096   5.695   2.795   0.690  1.8402  0.3025  0.1298
 2033SOL     OW 6097   3.852   5.720   2.231  0.0928 -0.2768  0.1105
 2033SOL    HW1 6098   3.824   5.698   2.142  0.9020 -2.4996  0.3384
 2033SOL    HW2 6099   3.780   5.770   2.267 -1.3019 -1.3766 -1.0265
 2034SOL     OW 6100   0.745   2.952   0.301  0.4473 -0.6170 -0.5693
 2034SOL    HW1 6101   0.840   2.955   0.317  0.2162 -1.3747  1.0971
 2034SOL    HW2 6102   0.707   3.000   0.374 -0.5110 -1.0142 -0.7988
 2035SOL     OW 6103   5.153   5.785   1.985  0.5098 -0.2240 -0.0512
 2035SOL    HW1 6104   5.194   5.713   2.032 -0.9433 -2.3493 -1.7838
 2035SOL    HW2 6105   5.225   5.831   1.942  1.4527 -0.8975  0.7789
 2036SOL     OW 6106   6.009   3.904   0.769  0.0010  0.1248 -0.0685
 2036SOL    HW1 6107   5.916   3.926   0.769 -0.1611 -0.5093  0.7403
 2036SOL    HW2 6108   6.044   3.948   0.847  0.5405  0.9495 -0.7515
 2037SOL     OW 6109   3.858   5.172   3.765 -0.1652  0.3931 -0.0294
 2037SOL    HW1 6110   3.935   5.202   3.814  2.1056 -0.9806 -2.4805
 2037SOL    HW2 6111   3.850   5.234   3.693  0.0032 -0.6627 -0.9834
 2038SOL     OW 6112   0.097   3.844   4.863 -0.3365 -0.2012  0.0637
 2038SOL    HW1 6113   0.025   3.867   4.804 -0.7535  0.0482  0.6638
 2038SOL    HW2 6114   0.088   3.750   4.877 -1.2795  0.0215  1.0853
 2039SOL     OW 6115   1.664   0.686   4.591  1.0732  0.2734  0.4503
 2039SOL    HW1 6116   1.594   0.750   4.601  0.4616 -0.1547 -0.8452
 2039SOL    HW2 6117   1.729   0.730   4.536  1.6022  0.4835  1.2221
 2040SOL     OW 6118   2.121   2.315   5.383 -0.0940  0.1839  0.3922
 2040SOL    HW1 6119   2.149   2.317   5.474  1.6390 -0.7468 -0.0928
 2040SOL    HW2 6120   2.161   2.236   5.347 -1.5502 -0.0024 -0.9507
 2041SOL     OW 6121   2.534   5.424   5.495 -0.2331  0.7267 -0.2427
 2041SOL    HW1 6122   2.567   5.443   5.407  0.7620 -0.5802 -0.1771
 2041SOL    HW2 6123   2.441   5.445   5.491 -0.1392  0.9813 -1.5076
 2042SOL     OW 6124   0.290   0.614   1.931 -0.3284  0.5464  0.4644
 2042SOL    HW1 6125   0.260   0.607   1.840 -1.2643  0.2446  0.7809
 2042SOL    HW2 6126   0.371   0.563   1.934 -0.1615  0.7658 -0.2581
 2043SOL     OW 6127   1.961   5.303   0.716 -0.2709 -0.0144  0.1176
 2043SOL    HW1 6128   2.001   5.231   0.666  0.2406  0.6153 -0.3971
 2043SOL    HW2 6129   1.964   5.378   0.657 -0.2061  0.5984  0.8784
 2044SOL     OW 6130   4.868   3.690   3.860  0.1306  0.6599 -0.0784
 2044SOL    HW1 6131   4.899   3.603   3.882 -1.0314  0.1743 -0.2966
 2044SOL    HW2 6132   4.873   3.740   3.942 -0.5060 -0.0145  0.3780
 2045SOL     OW 6133   0.872   2.375   5.202  0.1513  0.7284  0.0386
 2045SOL    HW1 6134   0.811   2.359   5.130 -0.4488 -0.1955  0.7237
 2045SOL    HW2 6135   0.821   2.354   5.280  1.6725 -1.1612  0.5850
 2046SOL     OW 6136   1.108   4.354   3.523 -0.0973  0.0322 -0.0115
 2046SOL    HW1 6137   1.118   4.379   3.432  2.2401 -1.4268 -0.2497
 2046SOL    HW2 6138   1.194   4.318   3.548 -1.2540 -1.5353  2.1349
 2047SOL     OW 6139   2.613   4.722   0.459 -0.3898 -0.1257 -0.0555
 2047SOL    HW1 6140   2.571   4.801   0.425  2.4067  0.3361 -2.8711
 2047SOL    HW2 6141   2.573   4.650   0.410  0.0657  0.0205 -0.6537
 2048SOL     OW 6142   1.121   4.675   5.918 -0.5299 -0.0666  0.4724
 2048SOL    HW1 6143   1.031   4.708   5.920  0.2269  2.1359  2.8846
 2048SOL    HW2 6144   1.131   4.625   5.999  0.4673 -0.1796  0.2962
 2049SOL     OW 6145   1.926   4.863   0.180  0.1473  0.0392  0.4463
 2049SOL    HW1 6146   1.957   4.873   0.090 -2.4431  1.0412 -0.4472
 2049SOL    HW2 6147   1.988   4.913   0.232  1.1600  0.2786 -0.9210
 2050SOL     OW 6148   3.807   2.396   3.883 -0.3754  0.4116 -0.1342
 2050SOL    HW1 6149   3.726   2.363   3.845 -0.7353  2.0648 -0.9106
 2050SOL    HW2 6150   3.868   2.322   3.878 -0.5892  0.2987 -3.4244
 2051SOL     OW 6151   5.336   2.803   0.378 -0.2093 -0.2778  0.4621
 2051SOL    HW1 6152   5.378   2.726   0.416  0.3817  0.6588  1.7862
 2051SOL    HW2 6153   5.243   2.791   0.396 -0.2889 -1.3222 -0.5624
 2052SOL     OW 6154   1.888   0.056   0.034 -0.4851  0.4305  0.1509
 2052SOL    HW1 6155   1.914   0.082   0.123 -1.4175  2.6070 -0.1465
 2052SOL    HW2 6156   1.831  -0.019   0.047 -0.8153  0.8652  1.4478
 2053SOL     OW 6157   5.264   4.171   1.264  0.5437 -0.1430  0.1552
 2053SOL    HW1 6158   5.170   4.161   1.253  0.5079  0.1877  0.1475
 2053SOL    HW2 6159   5.302   4.133   1.185  0.3111  1.7608 -0.9483
 2054SOL     OW 6160   4.793   3.972   4.771 -0.8886 -0.0228  0.1829
 2054SOL    HW1 6161   4.809   3.952   4.864  0.1635 -0.2976 -0.0351
 2054SOL    HW2 6162   4.844   4.051   4.755 -2.0063  0.6938  0.1118
 2055SOL     OW 6163   2.420   0.984   2.879  0.3949 -0.0314  0.2308
 2055SOL    HW1 6164   2.404   0.898   2.918  0.9352 -0.2993 -0.1295
 2055SOL    HW2 6165   2.496   0.971   2.823  0.8348  0.8204  0.6229
 2056SOL     OW 6166   1.908   4.764   2.776  0.0885  0.3359 -0.3392
 2056SOL    HW1 6167   1.952   4.765   2.690  0.1975 -0.3221 -0.2965
 2056SOL    HW2 6168   1.974   4.727   2.835 -0.0126  0.7234  0.0178
 2057SOL     OW 6169   4.130   1.236   1.998 -0.2519  0.7071 -0.2097
 2057SOL    HW1 6170   4.177   1.208   1.919 -0.3331  2.6427 -1.0112
 2057SOL    HW2 6171   4.197   1.237   2.066  0.4664  1.6235 -0.9061
 2058SOL     OW 6172   4.316   0.141   1.660 -0.2481 -0.1424 -0.0113
 2058SOL    HW1 6173   4.355   0.178   1.581 -2.8138  0.3018 -1.1439
 2058SOL    HW2 6174   4.254   0.207   1.691  0.6801 -0.3003  2.4454
 2059SOL     OW 6175   0.514   4.119   5.885 -0.2607 -0.6377 -0.0845
 2059SOL    HW1 6176   0.496   4.034   5.846 -1.1132 -1.2565  1.5794
 2059SOL    HW2 6177   0.575   4.101   5.957  0.5272  0.3415 -0.4782
 2060SOL     OW 6178   1.299   4.388   0.903  0.1858  0.2402  0.6142
 2060SOL    HW1 6179   1.317   4.466   0.852  0.9386 -0.2083  0.1846
 2060SOL    HW2 6180   1.361   4.392   0.976  0.4719 -0.1346  0.3945
 2061SOL     OW 6181   4.336   5.843   1.632  0.1303  0.0451 -0.0639
 2061SOL    HW1 6182   4.252   5.852   1.587 -0.6305 -2.0925  0.7983
 2061SOL    HW2 6183   4.353   5.930   1.669 -1.1274  0.8082 -1.1920
 2062SOL     OW 6184   5.200   0.639   5.790  0.1912  0.0426 -0.1888
 2062SOL    HW1 6185   5.289   0.654   5.822  0.2327 -1.3528  0.4193
 2062SOL    HW2 6186   5.209   0.637   5.695  0.4889  1.7299 -0.2225
 2063SOL     OW 6187   3.194   4.640   4.911  0.3190  0.0049 -0.0536
 2063SOL    HW1 6188   3.178   4.552   4.877  0.1242  0.0931 -0.1904
 2063SOL    HW2 6189   3.274   4.631   4.963  0.3536 -0.2323 -0.1452
 2064SOL     OW 6190   5.271   1.450   2.735 -0.2352 -0.3098 -0.3105
 2064SOL    HW1 6191   5.236   1.518   2.792 -0.5572 -1.2689  0.6730
 2064SOL    HW2 6192   5.348   1.490   2.694 -0.2668  0.5500  0.4398
 2065SOL     OW 6193   5.020   4.532   1.965  0.5745 -0.3918  0.4720
 2065SOL    HW1 6194   4.943   4.499   1.918 -0.2956  2.0887  0.0192
 2065SOL    HW2 6195   5.079   4.563   1.896  0.3370  1.0785  0.8961
 2066SOL     OW 6196   5.815   2.146   4.436 -0.3849  0.4391  0.1005
 2066SOL    HW1 6197   5.804   2.129   4.529  0.7701  1.3759  0.4356
 2066SOL    HW2 6198   5.909   2.134   4.420 -0.4927  0.7186 -0.8470
 2067SOL     OW 6199   0.233   1.483   5.488  0.3273  0.0700 -0.8769
 2067SOL    HW1 6200   0.248   1.389   5.476  1.7402  0.4127 -2.1080
 2067SOL    HW2 6201   0.153   1.488   5.541  0.4832 -1.8197 -0.3871
 2068SOL     OW 6202   0.623   0.086   1.216  0.1816  0.1764  0.0384
 2068SOL    HW1 6203   0.704   0.081   1.267  0.4394  0.0608 -0.3796
 2068SOL    HW2 6204   0.554   0.098   1.282  0.5596  0.5058  0.3798
 2069SOL     OW 6205   1.523   5.730   0.916  0.0675 -0.3259  0.2386
 2069SOL    HW1 6206   1.446   5.774   0.878  0.1900 -1.3123 -1.2761
 2069SOL    HW2 6207   1.531   5.650   0.864  2.1422 -0.2313  0.3518
 2070SOL     OW 6208   1.797   4.412   0.616  0.3515  0.5685  0.3125
 2070SOL    HW1 6209   1.814   4.336   0.559  0.4884  1.8454 -1.4142
 2070SOL    HW2 6210   1.845   4.392   0.696 -2.0024 -2.5333  1.1441
 2071SOL     OW 6211   1.504   5.363   2.813 -0.0190 -0.5708  0.0504
 2071SOL    HW1 6212   1.526   5.428   2.880  2.4261  0.5402 -1.6889
 2071SOL    HW2 6213   1.495   5.281   2.863 -0.0976  0.5177  1.9431
 2072SOL     OW 6214   0.942   4.878   2.578 -0.3581  0.7559 -0.4812
 2072SOL    HW1 6215   0.934   4.969   2.604 -5.7106 -0.0540  2.0616
 2072SOL    HW2 6216   1.034   4.856   2.594  0.5686  4.9559  1.2466
 2073SOL     OW 6217   1.333   0.695   3.770  0.0019 -0.0809  0.4076
 2073SOL    HW1 6218   1.389   0.764   3.807  1.4950 -1.6703  1.2925
 2073SOL    HW2 6219   1.318   0.636   3.843 -1.1476 -0.7712 -0.3639
 2074SOL     OW 6220   5.741  -0.002   1.181 -0.0883 -0.0144  0.0770
 2074SOL    HW1 6221   5.753  -0.007   1.086  1.6784  2.8657  0.0151
 2074SOL    HW2 6222   5.648   0.017   1.193 -0.9943 -3.3920 -0.8030
 2075SOL     OW 6223   1.847   0.481   0.476  0.3985  0.2825  0.6587
 2075SOL    HW1 6224   1.776   0.425   0.506  1.3151 -1.6282 -0.5727
 2075SOL    HW2 6225   1.839   0.560   0.529 -2.2451 -0.1109  0.9698
 2076SOL     OW 6226   1.206   4.906   5.808  0.6485 -0.5811  0.3447
 2076SOL    HW1 6227   1.168   4.832   5.855  0.7392  0.8347  2.7728
 2076SOL    HW2 6228   1.289   4.873   5.773  1.0410 -1.4383  2.0272
 2077SOL     OW 6229   2.238   0.763   0.292 -0.3841  0.4909  0.3114
 2077SOL    HW1 6230   2.327   0.787   0.320  0.2926 -0.9373 -0.4999
 2077SOL    HW2 6231   2.219   0.683   0.340 -1.1298  0.6320  0.2588
 2078SOL     OW 6232   5.683   5.099   5.305 -0.2533  0.2061  0.6795
 2078SOL    HW1 6233   5.698   5.149   5.224 -1.5961 -0.2747  0.0919
 2078SOL    HW2 6234   5.671   5.165   5.372  0.2012  0.6343  0.3453
 2079SOL     OW 6235   3.070   4.963   5.405  0.2303 -0.3495  0.1670
 2079SOL    HW1 6236   3.125   4.963   5.327 -0.1502 -4.3395 -0.3318
 2079SOL    HW2 6237   3.132   4.955   5.478  0.4923  0.5615  0.0452
 2080SOL     OW 6238   0.353   0.444   1.673 -0.0415  0.1119 -0.1769
 2080SOL    HW1 6239   0.321   0.533   1.655  1.3960  0.2092 -2.8880
 2080SOL    HW2 6240   0.300   0.388   1.615  0.1193 -0.6162  0.3655
 2081SOL     OW 6241   3.181   1.115   2.129 -0.3250  0.4753 -0.2513
 2081SOL    HW1 6242   3.197   1.175   2.057  0.4405  0.2987 -0.2403
 2081SOL    HW2 6243   3.089   1.090   2.120  0.2135 -1.1134 -2.3924
 2082SOL     OW 6244   2.125   4.754   3.167  0.3776 -0.0005  0.2912
 2082SOL    HW1 6245   2.216   4.780   3.156  0.7468 -1.9820 -2.2640
 2082SOL    HW2 6246   2.123   4.706   3.250  0.6980  3.2998  2.4334
 2083SOL     OW 6247   0.826   5.323   0.946 -0.3909 -0.5159 -0.6456
 2083SOL    HW1 6248   0.774   5.390   0.901 -0.0735 -0.5684 -1.0996
 2083SOL    HW2 6249   0.915   5.358   0.947 -0.3381 -0.6570 -0.3362
 2084SOL     OW 6250   3.146   4.520   0.092 -0.2769  0.3261  0.0905
 2084SOL    HW1 6251   3.068   4.465   0.100 -0.8010  1.2382  1.7330
 2084SOL    HW2 6252   3.190   4.511   0.177  1.3669 -0.0733 -0.7629
 2085SOL     OW 6253   2.623   0.531   0.668  0.4643  0.4679  0.5336
 2085SOL    HW1 6254   2.649   0.463   0.730 -0.0339  1.2652  1.6615
 2085SOL    HW2 6255   2.591   0.603   0.723 -2.9492  0.0458 -0.6785
 2086SOL     OW 6256   2.470   3.466   5.822  0.1511  0.0615 -0.0428
 2086SOL    HW1 6257   2.476   3.547   5.772 -0.5324 -1.6583 -3.1043
 2086SOL    HW2 6258   2.380   3.465   5.856  0.4796  1.0176  0.9216
 2087SOL     OW 6259   1.674   5.357   4.235 -0.1830  0.5130  0.0556
 2087SOL    HW1 6260   1.615   5.339   4.308  0.1917  2.7219  0.9687
 2087SOL    HW2 6261   1.634   5.430   4.189  0.0313 -0.2912 -1.4877
 2088SOL     OW 6262   1.686   5.416   1.379  0.4960 -0.0886  0.6251
 2088SOL    HW1 6263   1.781   5.416   1.393  0.3687 -0.9187  1.6469
 2088SOL    HW2 6264   1.658   5.329   1.408 -0.6827  0.4492  1.1580
 2089SOL     OW 6265   5.962   3.390   4.374  0.0391  0.1028 -0.0957
 2089SOL    HW1 6266   5.965   3.296   4.354  0.6646  0.4993 -2.0247
 2089SOL    HW2 6267   5.868   3.410   4.379 -0.1064 -0.7640  1.2284
 2090SOL     OW 6268   1.634   0.101   0.474 -0.1839 -0.0589 -0.1991
 2090SOL    HW1 6269   1.564   0.050   0.515  0.0054 -0.0532  0.1385
 2090SOL    HW2 6270   1.628   0.187   0.516 -0.0166 -0.0382 -0.2186
 2091SOL     OW 6271   1.633   5.656   1.485 -0.4111  0.7339 -0.5694
 2091SOL    HW1 6272   1.663   5.637   1.574  0.0702  1.4786 -0.5706
 2091SOL    HW2 6273   1.631   5.570   1.442  1.1470  0.5842 -0.3892
 2092SOL     OW 6274   5.402   4.916   5.086  0.3877 -0.4966  0.4870
 2092SOL    HW1 6275   5.442   5.000   5.107 -0.0041 -0.1982  0.0679
 2092SOL    HW2 6276   5.459   4.877   5.021  0.5184 -0.5109  0.6104
 2093SOL     OW 6277   1.891   4.757   1.193 -0.5236 -0.2550  0.7192
 2093SOL    HW1 6278   1.839   4.836   1.210 -2.3753 -1.2141 -0.1984
 2093SOL    HW2 6279   1.907   4.759   1.098  0.8781 -0.1618  0.9326
 2094SOL     OW 6280   2.241   4.235   1.488  0.4152 -0.6655 -0.2886
 2094SOL    HW1 6281   2.180   4.285   1.541  0.5630 -0.7926  0.0021
 2094SOL    HW2 6282   2.189   4.164   1.451 -0.0827  0.3503 -1.6605
 2095SOL     OW 6283   1.843   4.185   4.187 -0.9088 -0.5790 -0.2018
 2095SOL    HW1 6284   1.931   4.192   4.225 -1.1693  2.2092  0.1402
 2095SOL    HW2 6285   1.785   4.193   4.263 -1.4151  1.1902 -0.7251
 2096SOL     OW 6286   2.336   5.468   3.383 -0.2554  0.1779 -0.8739
 2096SOL    HW1 6287   2.379   5.519   3.452  0.6803 -0.3697 -1.0436
 2096SOL    HW2 6288   2.341   5.378   3.413  1.8381 -0.3134 -2.4757
 2097SOL     OW 6289   2.663   2.310   0.568 -0.2238 -0.3041  0.0222
 2097SOL    HW1 6290   2.577   2.290   0.607  0.5312 -3.9921  0.1571
 2097SOL    HW2 6291   2.722   2.317   0.643  0.2878 -2.1732 -0.1479
 2098SOL     OW 6292   3.143   4.279   1.663  0.0143  0.4488 -0.2964
 2098SOL    HW1 6293   3.198   4.351   1.633  0.8112  0.0687  0.2115
 2098SOL    HW2 6294   3.076   4.270   1.595 -0.4461  2.0247 -0.0985
 2099SOL     OW 6295   0.177   0.201   2.607  0.4409 -0.0383 -0.0170
 2099SOL    HW1 6296   0.115   0.143   2.651 -0.2796 -1.7043 -3.0229
 2099SOL    HW2 6297   0.125   0.278   2.584  0.1568 -0.3006 -0.2572
 2100SOL     OW 6298   1.260   0.414   2.514  0.2655 -0.2686  0.0532
 2100SOL    HW1 6299   1.245   0.337   2.568  1.1721 -0.3001  0.2844
 2100SOL    HW2 6300   1.231   0.388   2.427 -1.2972 -0.1853  0.5246
 2101SOL     OW 6301   1.556   0.972   4.795  0.2163  0.6131  1.3008
 2101SOL    HW1 6302   1.539   1.032   4.867  2.0875  0.2106  2.1556
 2101SOL    HW2 6303   1.545   0.885   4.834 -1.5939  0.3528  0.3098
 2102SOL     OW 6304   0.693   5.507   5.495 -0.1373 -0.0999  0.0733
 2102SOL    HW1 6305   0.756   5.487   5.426 -2.5795  0.3433 -2.4851
 2102SOL    HW2 6306   0.724   5.589   5.534  0.8804  0.0956 -1.0958
 2103SOL     OW 6307   1.829   5.875   2.704  0.3948 -0.3075 -0.0330
 2103SOL    HW1 6308   1.749   5.905   2.660  0.0787 -1.2857 -0.1539
 2103SOL    HW2 6309   1.884   5.841   2.633  0.0379 -1.5523  0.2728
 2104SOL     OW 6310   0.890   4.549   2.792 -0.1251 -0.1937 -0.0940
 2104SOL    HW1 6311   0.863   4.612   2.726 -0.8057  1.3314  1.5564
 2104SOL    HW2 6312   0.859   4.465   2.759  1.6425  0.1244 -2.8111
 2105SOL     OW 6313   2.933   5.107   2.968  0.0930  0.0188  0.1408
 2105SOL    HW1 6314   2.920   5.021   2.927  0.6475  0.4815 -1.0425
 2105SOL    HW2 6315   2.951   5.086   3.060 -0.6070 -1.0778  0.0591
 2106SOL     OW 6316   0.267   0.261   4.039  0.2902 -0.3069 -0.0464
 2106SOL    HW1 6317   0.280   0.343   4.086  1.9329 -0.5175 -0.0704
 2106SOL    HW2 6318   0.257   0.286   3.947 -0.8736 -0.0365  0.1438
 2107SOL     OW 6319   3.290   5.921   2.002 -0.5107  0.3298 -0.3572
 2107SOL    HW1 6320   3.325   5.997   2.049 -0.1782  0.7662 -1.2885
 2107SOL    HW2 6321   3.301   5.848   2.062 -0.7670  1.0025  0.5314
 2108SOL     OW 6322   5.495   4.176   3.116 -0.1212 -0.1552  0.2482
 2108SOL    HW1 6323   5.548   4.128   3.052 -0.3359  1.0588 -0.8703
 2108SOL    HW2 6324   5.405   4.169   3.083 -0.5237 -1.1661  1.4827
 2109SOL     OW 6325   0.136   5.417   2.799 -0.4578  0.0169 -0.3439
 2109SOL    HW1 6326   0.110   5.408   2.891  1.6253  2.1401  0.5377
 2109SOL    HW2 6327   0.065   5.467   2.759 -1.4043 -0.9588  0.0430
 2110SOL     OW 6328   4.850   3.826   2.231 -0.0940  0.0526 -0.1948
 2110SOL    HW1 6329   4.792   3.753   2.251 -1.9887  1.3839 -0.5692
 2110SOL    HW2 6330   4.935   3.785   2.214 -1.0893 -2.0545 -0.4330
 2111SOL     OW 6331   2.053   2.900   1.230 -0.2293 -0.6575 -0.0217
 2111SOL    HW1 6332   2.082   2.982   1.271 -0.5313  0.2520 -1.5592
 2111SOL    HW2 6333   1.968   2.882   1.272 -0.2071 -0.1374  0.2594
 2112SOL     OW 6334   2.689   0.830   1.870 -0.8222  0.0717  0.0195
 2112SOL    HW1 6335   2.638   0.813   1.790 -1.3724  1.6892 -0.0166
 2112SOL    HW2 6336   2.694   0.926   1.874  0.2674 -0.0220  1.2703
 2113SOL     OW 6337   0.371   2.897   3.308 -0.4699 -0.1983 -0.1079
 2113SOL    HW1 6338   0.281   2.872   3.331 -1.0424 -0.2358 -2.1858
 2113SOL    HW2 6339   0.368   2.914   3.213  1.6801 -0.0057 -0.1939
 2114SOL     OW 6340   1.884   4.381   2.262 -0.5315  0.2434 -0.0079
 2114SOL    HW1 6341   1.875   4.304   2.205  2.2546  0.0220 -0.3009
 2114SOL    HW2 6342   1.868   4.348   2.350  1.2023 -0.8821 -0.0659
 2115SOL     OW 6343   3.566   0.107   2.414  0.5401 -0.4539  0.3201
 2115SOL    HW1 6344   3.543   0.088   2.505 -0.5007  0.1484  0.1999
 2115SOL    HW2 6345   3.561   0.202   2.408 -1.9406 -0.5968 -0.9786
 2116SOL     OW 6346   0.413   2.540   3.431  0.4451 -0.3301 -0.3266
 2116SOL    HW1 6347   0.469   2.616   3.414 -0.7820  1.1864  1.8434
 2116SOL    HW2 6348   0.464   2.486   3.491  0.3073  0.1649  0.2518
 2117SOL     OW 6349   5.645   0.972   1.425  0.3799 -0.2166 -0.0932
 2117SOL    HW1 6350   5.616   0.919   1.351  0.6200  0.3365 -0.5886
 2117SOL    HW2 6351   5.691   0.910   1.482  0.9536 -0.4761 -0.8300
 2118SOL     OW 6352   2.543   5.166   0.875 -0.1494  0.1898  0.0243
 2118SOL    HW1 6353   2.630   5.150   0.839 -0.6960 -1.3905 -0.6633
 2118SOL    HW2 6354   2.557   5.234   0.941  1.5442  0.1858 -0.2819
 2119SOL     OW 6355   3.411   4.035   1.792 -0.0376 -0.1987  0.2287
 2119SOL    HW1 6356   3.423   4.053   1.698 -1.5981  1.4445  0.2921
 2119SOL    HW2 6357   3.400   4.121   1.831 -2.1519 -0.9895  1.5136
 2120SOL     OW 6358   4.459   1.659   0.406 -0.3255 -0.1852  0.4070
 2120SOL    HW1 6359   4.447   1.565   0.416 -0.3253 -0.4105 -1.3603
 2120SOL    HW2 6360   4.419   1.697   0.484 -1.6079 -1.5694  0.4635
 2121SOL     OW 6361   0.325   0.905   2.817 -0.0762  0.1831 -0.0639
 2121SOL    HW1 6362   0.355   0.980   2.869  0.9727 -0.2065 -0.0900
 2121SOL    HW2 6363   0.382   0.904   2.741 -2.0112  1.1389 -1.6224
 2122SOL     OW 6364   3.459   4.041   3.255  0.8861 -0.2631  0.2269
 2122SOL    HW1 6365   3.516   4.106   3.297  0.0465  1.7602 -1.5740
 2122SOL    HW2 6366   3.516   3.996   3.192  0.9604  0.3543 -0.1544
 2123SOL     OW 6367   0.674   4.988   5.468  0.4531  0.1163 -0.2433
 2123SOL    HW1 6368   0.688   5.043   5.545  1.0013 -0.3045 -0.0349
 2123SOL    HW2 6369   0.701   4.900   5.496  0.5852 -0.0549 -0.8910
 2124SOL     OW 6370   5.536   5.248   3.675 -0.1958 -0.4778 -0.3707
 2124SOL    HW1 6371   5.491   5.199   3.606  0.5137  0.0619 -1.2495
 2124SOL    HW2 6372   5.467   5.271   3.737 -0.6484 -1.9931 -0.2686
 2125SOL     OW 6373   3.124   3.582   0.924 -0.0655  0.4933  0.3311
 2125SOL    HW1 6374   3.128   3.675   0.903  2.1024  0.4601  0.3800
 2125SOL    HW2 6375   3.091   3.580   1.014 -1.1787  1.1162 -0.0374
 2126SOL     OW 6376   1.133   5.625   0.818 -0.1483  0.4558 -0.0019
 2126SOL    HW1 6377   1.185   5.574   0.756 -0.3188  1.2589 -0.8459
 2126SOL    HW2 6378   1.089   5.561   0.872 -0.2335 -0.2882 -0.9275
 2127SOL     OW 6379   0.363   1.948   1.087 -0.6711  0.0833 -0.2286
 2127SOL    HW1 6380   0.326   1.860   1.096 -1.7653  0.2963 -2.2124
 2127SOL    HW2 6381   0.388   1.955   0.995  2.2055  0.8228  0.5035
 2128SOL     OW 6382   5.580   0.410   2.805 -0.2219 -0.2112  0.6669
 2128SOL    HW1 6383   5.528   0.364   2.739 -1.7539  2.3809 -0.0507
 2128SOL    HW2 6384   5.539   0.386   2.888 -1.8399  0.8044  0.2027
 2129SOL     OW 6385   5.698   5.992   4.186  0.2847 -0.3734 -0.5174
 2129SOL    HW1 6386   5.652   5.909   4.170  1.4404 -1.5530  1.7570
 2129SOL    HW2 6387   5.630   6.050   4.221  0.2864 -2.0170  2.5993
 2130SOL     OW 6388   3.672   1.331   2.675  0.2163  0.2077  0.0800
 2130SOL    HW1 6389   3.737   1.401   2.681  0.0216  0.4624 -0.6974
 2130SOL    HW2 6390   3.717   1.253   2.709 -0.2729  1.1305  3.1878
 2131SOL     OW 6391   5.581   5.410   4.417 -0.1360  0.1257 -0.0226
 2131SOL    HW1 6392   5.558   5.366   4.335 -0.6676 -0.7468  0.5799
 2131SOL    HW2 6393   5.508   5.470   4.433 -0.5997 -0.5345  0.3891
 2132SOL     OW 6394   5.078   5.542   2.345  1.0827 -0.7388  0.4645
 2132SOL    HW1 6395   5.125   5.611   2.392  0.9193 -0.5574  0.3624
 2132SOL    HW2 6396   5.117   5.460   2.377  3.4812 -0.5625 -1.6591
 2133SOL     OW 6397   3.283   1.392   2.285 -0.2123 -0.2291 -0.5006
 2133SOL    HW1 6398   3.200   1.344   2.286 -0.5134  0.2090 -1.8452
 2133SOL    HW2 6399   3.317   1.379   2.196  0.5652  0.5885 -0.3420
 2134SOL     OW 6400   4.680   5.189   3.632  0.6546 -0.0308 -0.3501
 2134SOL    HW1 6401   4.718   5.110   3.671  0.8719  0.6307  0.8274
 2134SOL    HW2 6402   4.588   5.166   3.617  0.9354 -0.8209 -0.9195
 2135SOL     OW 6403   4.204   2.682   2.960 -0.3519  0.2457  0.3920
 2135SOL    HW1 6404   4.279   2.702   2.904  0.9596 -1.6792  1.3511
 2135SOL    HW2 6405   4.137   2.651   2.899 -0.5711  2.3711 -0.5200
 2136SOL     OW 6406   0.545   5.355   4.673 -0.2607 -0.0048  0.0406
 2136SOL    HW1 6407   0.598   5.305   4.610 -0.1000  0.0576  0.1263
 2136SOL    HW2 6408   0.508   5.427   4.620  0.1268  0.2310  0.0808
 2137SOL     OW 6409   1.011   4.697   1.423  0.1368 -0.3944 -0.2343
 2137SOL    HW1 6410   1.094   4.657   1.450 -0.1306  0.3936  1.9289
 2137SOL    HW2 6411   1.033   4.746   1.344  1.3910 -1.3907 -0.5500
 2138SOL     OW 6412   4.215   0.531   1.935  0.6620  0.1281 -0.3982
 2138SOL    HW1 6413   4.294   0.575   1.904  0.1988  1.1531 -0.1679
 2138SOL    HW2 6414   4.230   0.520   2.029  0.3816  0.6705 -0.2851
 2139SOL     OW 6415   2.294   0.372   0.883 -0.2712  0.5297  0.1518
 2139SOL    HW1 6416   2.301   0.361   0.788 -0.9579  0.1696  0.1405
 2139SOL    HW2 6417   2.206   0.407   0.897 -1.2265 -1.9807  0.8597
 2140SOL     OW 6418   5.658   0.109   3.627 -0.1292 -0.6722  0.2541
 2140SOL    HW1 6419   5.566   0.136   3.634 -0.3843 -1.4749  0.1518
 2140SOL    HW2 6420   5.665   0.072   3.539  0.7486  0.9924 -0.4068
 2141SOL     OW 6421   0.067   3.598   1.880  0.2078 -0.1326 -0.1497
 2141SOL    HW1 6422   0.133   3.620   1.945 -0.9734  0.9767  0.7391
 2141SOL    HW2 6423  -0.015   3.631   1.917 -0.5300  0.4405 -2.1575
 2142SOL     OW 6424   5.592   3.469   2.890 -0.5071 -0.6785  0.2785
 2142SOL    HW1 6425   5.553   3.546   2.848  1.6402  0.6778  0.6439
 2142SOL    HW2 6426   5.529   3.444   2.958 -0.7793  1.3999  0.8392
 2143SOL     OW 6427   3.510   5.449   3.852  0.3121 -0.0278 -0.2740
 2143SOL    HW1 6428   3.546   5.514   3.792  1.1141 -0.8212 -0.6835
 2143SOL    HW2 6429   3.587   5.409   3.893 -0.1892 -0.2767  0.4438
 2144SOL     OW 6430   0.558   1.922   1.528  0.0770 -0.6005  0.4615
 2144SOL    HW1 6431   0.467   1.903   1.547 -0.0531  0.3587  0.8106
 2144SOL    HW2 6432   0.559   2.014   1.502  1.3142  0.2353  3.1689
 2145SOL     OW 6433   0.580   1.176   0.872  0.7119  0.1527  0.2766
 2145SOL    HW1 6434   0.558   1.242   0.807  0.4911 -0.9398 -0.8060
 2145SOL    HW2 6435   0.655   1.129   0.834  1.0215 -0.0693  1.1308
 2146SOL     OW 6436   5.490   0.903   1.877 -0.0398  0.2855  0.5896
 2146SOL    HW1 6437   5.536   0.984   1.856  0.8950 -0.0339  1.3463
 2146SOL    HW2 6438   5.398   0.927   1.877 -0.0382  0.6687 -2.2403
 2147SOL     OW 6439   0.563   5.370   3.719 -0.2474  0.0473 -0.3076
 2147SOL    HW1 6440   0.478   5.395   3.754 -0.9232 -0.5546 -1.4548
 2147SOL    HW2 6441   0.627   5.414   3.776 -1.3165  3.0609 -1.2746
 2148SOL     OW 6442   5.721   2.519   5.837 -0.2137 -0.3695 -0.7422
 2148SOL    HW1 6443   5.658   2.503   5.766  0.3114 -2.2489 -0.8273
 2148SOL    HW2 6444   5.797   2.467   5.813  0.2628 -0.4184  0.8202
 2149SOL     OW 6445   5.913   5.198   2.006 -0.1708 -0.1440  0.7762
 2149SOL    HW1 6446   5.954   5.210   1.921  0.6645 -1.2884  0.9837
 2149SOL    HW2 6447   5.961   5.125   2.046 -1.9680 -1.1206  1.3190
 2150SOL     OW 6448   5.328   0.100   0.933  0.1984  0.1193 -0.0775
 2150SOL    HW1 6449   5.389   0.082   0.862 -0.2980 -0.3859 -0.3762
 2150SOL    HW2 6450   5.242   0.105   0.891 -0.3207 -1.7303  0.6673
 2151SOL     OW 6451   1.011   5.500   3.374 -0.0118  0.2580  0.7654
 2151SOL    HW1 6452   1.002   5.457   3.459 -2.3399 -0.2969  0.3209
 2151SOL    HW2 6453   0.950   5.573   3.378 -0.1682  0.2104 -0.4160
 2152SOL     OW 6454   2.818   5.032   3.381 -0.3079 -0.2045  0.0904
 2152SOL    HW1 6455   2.878   5.098   3.414  0.2232 -2.3018  3.8041
 2152SOL    HW2 6456   2.872   4.973   3.328 -0.1060  0.4501 -0.4403
 2153SOL     OW 6457   0.411   4.668   2.178 -0.5703 -0.0219 -0.0386
 2153SOL    HW1 6458   0.458   4.654   2.260 -1.1903 -0.1231  0.3029
 2153SOL    HW2 6459   0.358   4.589   2.167 -0.1292 -0.2219 -0.7871
 2154SOL     OW 6460   2.408   4.968   0.038  0.5175  0.0037  0.1996
 2154SOL    HW1 6461   2.376   5.056   0.058  0.5606 -0.1231  0.8632
 2154SOL    HW2 6462   2.399   4.959  -0.057 -0.5441  0.3135  0.2649
 2155SOL     OW 6463   5.704   3.555   2.235 -0.2939  0.1929 -0.2725
 2155SOL    HW1 6464   5.744   3.491   2.177  3.1643  1.9718 -0.0958
 2155SOL    HW2 6465   5.616   3.568   2.199  0.3901 -1.4971 -2.8347
 2156SOL     OW 6466   1.542   4.798   0.919 -0.1824  0.2462  0.0429
 2156SOL    HW1 6467   1.624   4.845   0.903 -0.9422  0.8769 -2.4080
 2156SOL    HW2 6468   1.492   4.856   0.977  0.1569  1.0086 -0.4100
 2157SOL     OW 6469   1.134   2.281   4.278 -0.1784  0.6570  0.3984
 2157SOL    HW1 6470   1.106   2.210   4.336  1.6448 -1.2724 -0.9334
 2157SOL    HW2 6471   1.222   2.257   4.252 -0.6535  1.7737 -2.6231
 2158SOL     OW 6472   1.257   5.169   5.402  0.5711 -0.1506  0.4609
 2158SOL    HW1 6473   1.215   5.116   5.334  0.2764 -0.0589  0.5663
 2158SOL    HW2 6474   1.328   5.115   5.434 -0.1297 -0.7608  1.0234
 2159SOL     OW 6475   3.123   5.847   5.018  0.8168 -0.5740 -0.1124
 2159SOL    HW1 6476   3.177   5.881   4.946  0.9808  1.2145  0.8115
 2159SOL    HW2 6477   3.035   5.877   4.998  1.1054  1.2170  1.1524
 2160SOL     OW 6478   1.765   4.868   4.494 -0.5380  0.4682 -0.3152
 2160SOL    HW1 6479   1.695   4.883   4.431 -2.1938  0.0349  1.3496
 2160SOL    HW2 6480   1.787   4.955   4.528  0.5029  0.7295 -1.5605
 2161SOL     OW 6481   0.047   3.619   4.215  0.0756  0.0297 -0.3153
 2161SOL    HW1 6482   0.073   3.538   4.258 -0.1350  0.5094  0.7455
 2161SOL    HW2 6483   0.127   3.672   4.211  0.4078 -0.5246 -1.7513
 2162SOL     OW 6484   5.984   5.700   0.507 -0.3171  0.0153  0.0777
 2162SOL    HW1 6485   6.013   5.791   0.508  0.9470 -0.3526  1.6073
 2162SOL    HW2 6486   5.939   5.690   0.423 -0.1646  1.9324 -0.2849
 2163SOL     OW 6487   3.284   5.010   3.721  0.3119 -0.1793 -0.0444
 2163SOL    HW1 6488   3.192   5.032   3.706  0.0025 -0.7862  0.8842
 2163SOL    HW2 6489   3.287   4.915   3.717  0.9592 -0.1528 -0.3523
 2164SOL     OW 6490   5.917   5.667   4.977 -0.4710 -0.2799 -1.0280
 2164SOL    HW1 6491   5.824   5.654   4.997  0.1352  1.0306  4.0039
 2164SOL    HW2 6492   5.932   5.760   4.989  1.9613 -0.8742  1.6853
 2165SOL     OW 6493   0.652   3.291   0.999  0.1858  0.1249 -0.0608
 2165SOL    HW1 6494   0.696   3.366   1.038  1.0717 -0.7576  0.6758
 2165SOL    HW2 6495   0.564   3.323   0.979  0.5197  1.3235  0.3156
 2166SOL     OW 6496   1.101   5.888   4.117 -0.4726 -0.6490 -1.1237
 2166SOL    HW1 6497   1.100   5.974   4.159  1.0743 -1.1923  0.1188
 2166SOL    HW2 6498   1.163   5.897   4.045  0.0542 -0.8319 -0.7012
 2167SOL     OW 6499   2.732   1.301   3.335 -0.5384  0.3105  0.5112
 2167SOL    HW1 6500   2.651   1.262   3.301 -1.2157 -0.6081  2.9686
 2167SOL    HW2 6501   2.713   1.394   3.340 -1.0552  0.2366  0.0865
 2168SOL     OW 6502   0.126   3.565   4.815 -0.3199  0.9522 -0.1763
 2168SOL    HW1 6503   0.104   3.506   4.887 -1.8894  0.9323 -0.6254
 2168SOL    HW2 6504   0.107   3.514   4.736 -0.9277  1.7735 -0.5715
 2169SOL     OW 6505   2.083   4.381   4.723  0.1908 -0.0508 -0.5126
 2169SOL    HW1 6506   2.014   4.425   4.673  0.9632  0.5864 -1.0172
 2169SOL    HW2 6507   2.089   4.294   4.683  0.3056  0.2044 -1.0459
 2170SOL     OW 6508   1.268   0.572   4.429  0.0278 -0.8252  0.0915
 2170SOL    HW1 6509   1.311   0.506   4.483  0.8995  0.3461  0.8824
 2170SOL    HW2 6510   1.205   0.615   4.487  0.4252 -0.0673 -0.0224
 2171SOL     OW 6511   1.294   2.023   5.522  0.1779 -0.5329 -0.1685
 2171SOL    HW1 6512   1.372   1.971   5.542  0.8848  0.8443  0.8224
 2171SOL    HW2 6513   1.299   2.098   5.581 -0.4022  1.0903 -2.0601
 2172SOL     OW 6514   5.063   1.742   5.170 -1.0783  0.8514  0.2204
 2172SOL    HW1 6515   5.137   1.803   5.175  0.4301 -0.8754  0.1025
 2172SOL    HW2 6516   5.051   1.712   5.260 -0.9367  0.3480  0.0729
 2173SOL     OW 6517   5.099   3.642   1.054  0.2876  0.3659 -0.6254
 2173SOL    HW1 6518   5.123   3.552   1.032 -3.2658 -0.8046 -0.4963
 2173SOL    HW2 6519   5.086   3.685   0.970 -0.8340 -0.1868 -0.7546
 2174SOL     OW 6520   5.438   3.309   1.552  1.0028 -0.0257 -0.0472
 2174SOL    HW1 6521   5.370   3.293   1.617 -0.1571  0.0986 -1.1989
 2174SOL    HW2 6522   5.453   3.404   1.557  0.1461  0.1555 -0.6790
 2175SOL     OW 6523   1.700   1.395   5.193 -0.1614 -0.7273  0.2633
 2175SOL    HW1 6524   1.635   1.336   5.231 -1.2056  0.4936  0.4237
 2175SOL    HW2 6525   1.697   1.376   5.099 -1.1755 -0.2979  0.1945
 2176SOL     OW 6526   2.865   4.592   4.169 -0.3841 -0.5952  0.1707
 2176SOL    HW1 6527   2.929   4.613   4.101  2.7302 -1.2589  2.6514
 2176SOL    HW2 6528   2.828   4.677   4.193 -1.0247 -0.2726 -1.7474
 2177SOL     OW 6529   3.325   0.090   0.347 -0.0719  0.1580 -0.4941
 2177SOL    HW1 6530   3.380   0.142   0.406 -0.0797 -2.0948  1.6418
 2177SOL    HW2 6531   3.368   0.097   0.262  1.8731  0.8140  0.4872
 2178SOL     OW 6532   4.719   0.715   1.386 -0.0159  0.2705  0.7066
 2178SOL    HW1 6533   4.695   0.754   1.301 -2.4883  1.1961  1.7404
 2178SOL    HW2 6534   4.658   0.643   1.397 -0.0365  0.4561  1.9173
 2179SOL     OW 6535   0.795   5.084   0.744 -0.3753  0.3844 -0.1907
 2179SOL    HW1 6536   0.778   5.166   0.791  0.6586 -0.5775  1.9841
 2179SOL    HW2 6537   0.883   5.058   0.772 -1.4016 -2.4356  0.7272
 2180SOL     OW 6538   5.678   1.382   3.873 -0.2089 -0.2123  0.7431
 2180SOL    HW1 6539   5.715   1.417   3.792  1.2431 -0.4966  1.2383
 2180SOL    HW2 6540   5.724   1.298   3.886 -2.5361 -1.6484  0.3431
 2181SOL     OW 6541   1.044   1.164   0.182  0.0933 -0.5859 -0.2222
 2181SOL    HW1 6542   0.967   1.213   0.213 -0.1451 -0.5202 -0.9095
 2181SOL    HW2 6543   1.102   1.161   0.258  0.3327  1.1983 -0.2883
 2182SOL     OW 6544   2.434   5.820   5.709  0.4538 -0.0906 -0.2835
 2182SOL    HW1 6545   2.500   5.755   5.733  0.8921  0.5576  0.3011
 2182SOL    HW2 6546   2.353   5.786   5.747  0.6034 -0.4865 -0.3121
 2183SOL     OW 6547   0.915   5.505   5.320  0.3217  0.5639  0.2955
 2183SOL    HW1 6548   0.976   5.538   5.386 -0.4082  0.4310  1.0568
 2183SOL    HW2 6549   0.933   5.411   5.316 -2.1317 -0.1947  3.1386
 2184SOL     OW 6550   3.776   4.202   3.698  0.2125 -0.0227  0.2648
 2184SOL    HW1 6551   3.788   4.278   3.640  1.0874 -0.2004  0.2068
 2184SOL    HW2 6552   3.827   4.223   3.776 -0.5068 -0.0370  0.7551
 2185SOL     OW 6553   0.598   5.198   3.107  0.3744  1.0551  0.0326
 2185SOL    HW1 6554   0.625   5.109   3.132 -0.5458  0.6411 -0.3941
 2185SOL    HW2 6555   0.635   5.211   3.021  2.4771  1.9991  1.0210
 2186SOL     OW 6556   1.763   2.129   2.803  0.4037 -0.5109  0.1685
 2186SOL    HW1 6557   1.775   2.187   2.878  1.6405 -1.7512  0.9722
 2186SOL    HW2 6558   1.731   2.047   2.840 -2.9109  0.0268 -1.1039
 2187SOL     OW 6559   5.907   1.372   4.520  0.6062 -0.8526 -0.1063
 2187SOL    HW1 6560   5.862   1.428   4.457 -1.3726 -2.1002  0.1026
 2187SOL    HW2 6561   5.887   1.283   4.491  1.4972 -1.4456  1.0297
 2188SOL     OW 6562   5.385   1.092   5.538  0.2843 -0.4948  0.4141
 2188SOL    HW1 6563   5.291   1.101   5.520  0.2612 -0.4116  0.5740
 2188SOL    HW2 6564   5.414   1.023   5.480 -0.3004 -1.9996  1.8281
 2189SOL     OW 6565   3.792   5.250   2.521  0.4369 -0.0890 -0.4407
 2189SOL    HW1 6566   3.824   5.178   2.575  1.7129 -1.0219 -2.3316
 2189SOL    HW2 6567   3.872   5.297   2.496 -0.0219 -0.1751 -2.1366
 2190SOL     OW 6568   2.051   3.198   4.249 -0.1899 -0.3990 -0.1208
 2190SOL    HW1 6569   2.140   3.173   4.225 -0.1154  0.9849 -1.4262
 2190SOL    HW2 6570   2.058   3.227   4.340  1.3698  2.3875 -0.9810
 2191SOL     OW 6571   1.221   1.112   5.346 -0.1119 -0.4025  0.0000
 2191SOL    HW1 6572   1.139   1.084   5.388  0.2484 -0.2023  0.8629
 2191SOL    HW2 6573   1.257   1.178   5.405 -0.0608  0.6104 -1.1182
 2192SOL     OW 6574   3.120   4.403   4.796 -0.2339  0.2677  0.3660
 2192SOL    HW1 6575   3.199   4.362   4.760 -0.8124  0.5578 -1.3024
 2192SOL    HW2 6576   3.080   4.335   4.849  0.0613 -0.5551 -0.4460
 2193SOL     OW 6577   3.917   5.913   4.071 -0.9898  0.0613 -0.4618
 2193SOL    HW1 6578   3.828   5.932   4.041 -0.8677 -0.3755 -1.1228
 2193SOL    HW2 6579   3.905   5.849   4.142 -1.1521 -0.8900 -1.3233
 2194SOL     OW 6580   5.957   4.369   0.727  0.5435 -0.0369  0.0218
 2194SOL    HW1 6581   5.954   4.307   0.800  0.6998 -0.1089 -0.0341
 2194SOL    HW2 6582   5.959   4.314   0.648 -0.9271  0.0357 -0.0923
 2195SOL     OW 6583   1.854   0.255   5.134  0.3101  0.6278  0.4788
 2195SOL    HW1 6584   1.944   0.236   5.161  0.3106  0.4732  0.3669
 2195SOL    HW2 6585   1.850   0.231   5.042 -0.1185 -0.3081  0.7336
 2196SOL     OW 6586   2.507   4.737   3.964 -0.6574 -0.3493 -0.2323
 2196SOL    HW1 6587   2.445   4.758   3.895 -0.9453 -2.5579 -0.7146
 2196SOL    HW2 6588   2.548   4.655   3.936  1.3493  0.2103  0.8313
 2197SOL     OW 6589   1.025   4.822   4.968  0.3638  0.8203 -0.6682
 2197SOL    HW1 6590   0.946   4.835   4.914  0.3845  1.4829 -0.5484
 2197SOL    HW2 6591   1.097   4.850   4.911  0.4445  0.9100 -0.5214
 2198SOL     OW 6592   4.682   3.768   4.649  0.1243  0.2610  0.6380
 2198SOL    HW1 6593   4.591   3.800   4.646 -0.2005 -0.6095  0.9424
 2198SOL    HW2 6594   4.727   3.831   4.704  0.0130  1.4163 -0.5313
 2199SOL     OW 6595   5.112   5.053   5.234  0.1507 -0.1276  0.1157
 2199SOL    HW1 6596   5.070   4.979   5.279 -1.6318  0.1762 -0.9556
 2199SOL    HW2 6597   5.093   5.038   5.142  0.9528  0.9738 -0.2437
 2200SOL     OW 6598   1.042   2.907   4.718  0.2771 -0.5115 -0.1809
 2200SOL    HW1 6599   1.010   2.857   4.793 -0.1676  0.5218  0.3332
 2200SOL    HW2 6600   1.025   2.998   4.741  0.7811 -0.1379 -1.2405
 2201SOL     OW 6601   1.347   4.591   4.739  0.3024  0.0518 -0.0669
 2201SOL    HW1 6602   1.424   4.562   4.691  0.9617 -0.6393  1.3603
 2201SOL    HW2 6603   1.372   4.584   4.832 -1.1660  0.6619  0.4043
 2202SOL     OW 6604   0.569   0.082   5.094  0.1225  0.4294 -0.7417
 2202SOL    HW1 6605   0.612   0.001   5.070 -2.0970 -0.1430 -3.2694
 2202SOL    HW2 6606   0.602   0.147   5.032  0.0697  0.8854 -0.3078
 2203SOL     OW 6607   4.976   3.356   3.072 -0.1497 -0.3154  0.2807
 2203SOL    HW1 6608   4.944   3.347   2.982  1.2662 -1.9742 -0.1089
 2203SOL    HW2 6609   4.953   3.274   3.115  2.1256 -0.9507  0.4103
 2204SOL     OW 6610   0.340   2.236   3.647 -0.1155 -0.0733 -0.0712
 2204SOL    HW1 6611   0.328   2.205   3.736 -0.1942  0.9629  0.2947
 2204SOL    HW2 6612   0.424   2.282   3.648  0.6436 -1.3690 -0.9271
 2205SOL     OW 6613   5.151   5.779   0.283 -0.1773  0.0351  0.1271
 2205SOL    HW1 6614   5.203   5.701   0.305 -0.4254  0.7061  3.5469
 2205SOL    HW2 6615   5.060   5.749   0.287 -0.2519 -0.1525 -1.7487
 2206SOL     OW 6616   4.465   3.457   5.219  0.7406 -0.2789  0.5802
 2206SOL    HW1 6617   4.389   3.399   5.216  1.1622 -0.9388  1.9599
 2206SOL    HW2 6618   4.456   3.503   5.302  1.7985 -0.2756  0.6975
 2207SOL     OW 6619   5.461   0.330   5.070  0.3251 -0.4556  0.1606
 2207SOL    HW1 6620   5.422   0.400   5.018 -0.4044 -1.3142 -0.4938
 2207SOL    HW2 6621   5.419   0.337   5.156  1.7583  1.1595  0.7792
 2208SOL     OW 6622   2.496   4.182   0.477 -0.4113  0.3381  0.0759
 2208SOL    HW1 6623   2.492   4.090   0.449  0.7674  0.6060 -1.0819
 2208SOL    HW2 6624   2.514   4.177   0.571  0.7890 -0.6535 -0.1711
 2209SOL     OW 6625   3.720   4.207   2.109 -0.4109 -0.2363 -0.1787
 2209SOL    HW1 6626   3.702   4.300   2.094  1.5611  0.1931 -0.1193
 2209SOL    HW2 6627   3.635   4.169   2.130 -1.4651  1.3129 -1.4023
 2210SOL     OW 6628   3.717   5.266   5.861  0.2131  0.1464 -0.0199
 2210SOL    HW1 6629   3.684   5.179   5.837 -0.1082  0.2218  0.1387
 2210SOL    HW2 6630   3.728   5.311   5.778 -0.3418  0.2082 -0.0656
 2211SOL     OW 6631   1.523   5.515   1.185 -0.3225  0.4275 -0.1518
 2211SOL    HW1 6632   1.613   5.524   1.153  0.0616  2.7624  1.3635
 2211SOL    HW2 6633   1.532   5.476   1.272 -0.8883 -0.2721 -0.3919
 2212SOL     OW 6634   5.054   0.825   0.645  0.3964 -0.3733 -0.1953
 2212SOL    HW1 6635   5.104   0.842   0.565 -1.4729 -0.2936 -1.3983
 2212SOL    HW2 6636   4.967   0.860   0.627 -0.9066 -2.8731  0.7838
 2213SOL     OW 6637   3.875   1.357   1.182  0.4021  0.4962  0.1686
 2213SOL    HW1 6638   3.918   1.397   1.257 -0.5803  4.0543 -0.9753
 2213SOL    HW2 6639   3.782   1.374   1.195 -0.1744 -1.8760 -0.2822
 2214SOL     OW 6640   2.610   3.023   0.334 -0.4048  0.4885  0.0272
 2214SOL    HW1 6641   2.547   3.096   0.329 -1.5598 -0.4234  0.6923
 2214SOL    HW2 6642   2.555   2.946   0.349  0.7605 -0.5736 -0.9500
 2215SOL     OW 6643   4.375   1.079   5.552  0.0241  0.1862  0.4559
 2215SOL    HW1 6644   4.377   1.143   5.623 -0.1621  0.3560  0.3095
 2215SOL    HW2 6645   4.384   1.132   5.473 -4.2602  0.5768 -0.0200
 2216SOL     OW 6646   1.766   3.523   1.729  0.1227  0.1587  0.4527
 2216SOL    HW1 6647   1.709   3.563   1.663 -2.1099  0.1117  2.2376
 2216SOL    HW2 6648   1.836   3.588   1.742 -1.5716  1.9924  0.8729
 2217SOL     OW 6649   5.693   0.018   0.389  0.0460  0.2378  0.1539
 2217SOL    HW1 6650   5.783   0.042   0.409  0.0032  0.3794  0.1779
 2217SOL    HW2 6651   5.667  -0.040   0.461  0.2589 -0.1532 -0.0802
 2218SOL     OW 6652   1.456   0.501   5.727  0.2497  0.2427  0.1343
 2218SOL    HW1 6653   1.380   0.460   5.769  1.2469  0.3115  2.1494
 2218SOL    HW2 6654   1.444   0.484   5.634 -0.9676 -1.9453  0.6134
 2219SOL     OW 6655   0.516   1.314   0.647  0.7432 -0.5233 -0.0214
 2219SOL    HW1 6656   0.503   1.231   0.602 -2.3417 -0.0865 -0.1763
 2219SOL    HW2 6657   0.498   1.380   0.580 -0.5562  0.1732  0.9542
 2220SOL     OW 6658   2.473   0.145   2.164 -0.1267 -0.0360  0.3498
 2220SOL    HW1 6659   2.483   0.177   2.074 -2.3587 -3.3665 -1.2779
 2220SOL    HW2 6660   2.556   0.101   2.182 -0.7201 -2.0602 -1.4265
 2221SOL     OW 6661   3.876   3.063   0.193  0.2347 -0.4381  0.0412
 2221SOL    HW1 6662   3.925   3.135   0.152  0.0243 -0.0187  0.5205
 2221SOL    HW2 6663   3.785   3.093   0.194  0.2626 -0.3500  1.0031
 2222SOL     OW 6664   1.599   5.616   2.684  0.3089 -0.1809  0.2159
 2222SOL    HW1 6665   1.572   5.524   2.688  0.7555 -0.4174 -1.3486
 2222SOL    HW2 6666   1.662   5.626   2.756 -0.6267 -0.7761  1.1331
 2223SOL     OW 6667   3.856   5.121   5.564 -0.0469  0.2605  0.0746
 2223SOL    HW1 6668   3.880   5.093   5.652 -1.0795 -0.3225  0.1789
 2223SOL    HW2 6669   3.920   5.189   5.543  1.6990 -1.2206  0.3345
 2224SOL     OW 6670   2.286   2.064   0.310  0.4407  0.2521 -0.2559
 2224SOL    HW1 6671   2.359   2.123   0.294 -0.2832  1.1311 -0.4277
 2224SOL    HW2 6672   2.212   2.122   0.330 -0.4947 -0.5403 -1.2538
 2225SOL     OW 6673   5.436   1.465   4.577 -0.3082  0.5964 -0.0366
 2225SOL    HW1 6674   5.417   1.456   4.484 -1.1060  0.2297  0.1504
 2225SOL    HW2 6675   5.455   1.375   4.607  0.0729  0.7292  0.1263
 2226SOL     OW 6676   1.057   2.781   1.872  0.0931  0.2742 -0.6786
 2226SOL    HW1 6677   1.038   2.833   1.794 -0.7013 -1.0305 -1.4027
 2226SOL    HW2 6678   0.999   2.705   1.864  2.6029 -1.7716 -0.7254
 2227SOL     OW 6679   2.334   1.740   1.478  0.1609  0.0466 -0.0617
 2227SOL    HW1 6680   2.261   1.785   1.437  0.1190  1.3100  1.2872
 2227SOL    HW2 6681   2.318   1.647   1.462 -1.3222  0.3454 -0.4537
 2228SOL     OW 6682   3.831   0.752   5.153 -0.0157  0.0174 -0.5814
 2228SOL    HW1 6683   3.738   0.763   5.135 -0.5138 -1.1288  1.0535
 2228SOL    HW2 6684   3.875   0.793   5.079 -1.8097  0.7577 -1.2937
 2229SOL     OW 6685   3.398   4.837   5.751  0.0858 -0.1885 -0.5666
 2229SOL    HW1 6686   3.385   4.757   5.701 -2.7241 -1.1541  1.4323
 2229SOL    HW2 6687   3.355   4.821   5.835  1.1702  2.7147  0.7022
 2230SOL     OW 6688   5.990   0.573   3.061 -0.0931  0.4823  0.6167
 2230SOL    HW1 6689   6.027   0.498   3.108 -1.1211  0.9156  2.2261
 2230SOL    HW2 6690   5.900   0.580   3.095 -0.0300  2.4152  0.4839
 2231SOL     OW 6691   0.637   2.166   3.749 -0.3350  0.1043  0.2926
 2231SOL    HW1 6692   0.670   2.205   3.830 -0.2092 -0.4282  0.5022
 2231SOL    HW2 6693   0.621   2.240   3.691 -0.0800  0.4624  0.6782
 2232SOL     OW 6694   5.130   3.212   1.662 -0.1555  0.2637 -0.5461
 2232SOL    HW1 6695   5.045   3.180   1.631  0.2267 -0.8892 -0.4537
 2232SOL    HW2 6696   5.192   3.145   1.634  0.1164 -1.5448  3.6374
 2233SOL     OW 6697   3.309   2.429   2.753 -0.4814  0.0189 -0.2205
 2233SOL    HW1 6698   3.342   2.444   2.842  0.3774  1.1220 -0.6952
 2233SOL    HW2 6699   3.233   2.486   2.746 -1.8394 -1.6183  0.4661
 2234SOL     OW 6700   3.037   5.805   0.185 -0.1214  0.0382  0.2714
 2234SOL    HW1 6701   3.021   5.754   0.264  0.9921 -3.0623 -1.3499
 2234SOL    HW2 6702   3.131   5.824   0.188 -0.0680 -0.1276 -0.2920
 2235SOL     OW 6703   3.165   1.005   1.414  0.0058  0.3722  0.4156
 2235SOL    HW1 6704   3.251   1.048   1.419 -0.5368  1.5886 -0.2064
 2235SOL    HW2 6705   3.180   0.917   1.448  1.6595  0.3212 -0.3236
 2236SOL     OW 6706   0.542   3.443   0.559  0.3313 -0.3128  0.2475
 2236SOL    HW1 6707   0.469   3.437   0.621  0.1493 -0.6378  0.0082
 2236SOL    HW2 6708   0.544   3.535   0.532 -0.0850 -0.3330  0.1441
 2237SOL     OW 6709   5.591   1.691   1.932 -0.4357  0.0760  0.2966
 2237SOL    HW1 6710   5.681   1.681   1.962 -0.6635  0.2560  1.0726
 2237SOL    HW2 6711   5.545   1.615   1.969 -0.8371  0.5891  0.8846
 2238SOL     OW 6712   3.177   1.158   0.914  0.1092 -0.1377  0.2540
 2238SOL    HW1 6713   3.144   1.125   0.830  1.7157 -1.0634 -0.0432
 2238SOL    HW2 6714   3.249   1.099   0.937 -0.2266  0.1541  2.2517
 2239SOL     OW 6715   4.590   0.359   0.536  0.0660 -0.4978 -0.0245
 2239SOL    HW1 6716   4.516   0.297   0.533 -0.9850  0.7084  0.2417
 2239SOL    HW2 6717   4.653   0.317   0.595  0.0245 -1.9855 -0.9890
 2240SOL     OW 6718   5.119   1.216   3.316 -0.1309 -0.2453  0.3007
 2240SOL    HW1 6719   5.212   1.210   3.293 -0.2390 -0.8059  0.0041
 2240SOL    HW2 6720   5.088   1.295   3.271  0.1898 -0.0701  0.3815
 2241SOL     OW 6721   3.334   1.578   1.159  0.7450  0.1194 -0.2863
 2241SOL    HW1 6722   3.303   1.488   1.172  1.7396 -0.3725 -1.1352
 2241SOL    HW2 6723   3.264   1.621   1.111 -0.8501  0.5726  2.2557
 2242SOL     OW 6724   1.565   2.412   1.053 -0.0091  0.3101  0.0626
 2242SOL    HW1 6725   1.480   2.450   1.074 -0.7358 -0.9470 -0.4681
 2242SOL    HW2 6726   1.629   2.469   1.097 -1.1072  1.3244  0.3957
 2243SOL     OW 6727   0.229  -0.020   2.909  0.1540  0.2027 -0.1509
 2243SOL    HW1 6728   0.258   0.048   2.970 -2.5379  1.3234 -0.0066
 2243SOL    HW2 6729   0.167   0.023   2.851 -0.5843 -1.8281 -0.9757
 2244SOL     OW 6730   1.494   1.307   1.909 -0.5118  0.2522 -0.0721
 2244SOL    HW1 6731   1.500   1.227   1.858 -1.0634  0.6761 -0.8179
 2244SOL    HW2 6732   1.455   1.371   1.850 -0.8138  0.8581  0.7546
 2245SOL     OW 6733   4.739   2.868   4.497 -0.1824 -0.4699  0.4527
 2245SOL    HW1 6734   4.651   2.902   4.486  0.7849  1.8010 -0.9648
 2245SOL    HW2 6735   4.796   2.945   4.491  1.9639 -1.9512  0.5222
 2246SOL     OW 6736   3.210   3.671   2.904  0.3020 -0.0573  0.2870
 2246SOL    HW1 6737   3.114   3.677   2.905  0.3556  1.3287 -0.3805
 2246SOL    HW2 6738   3.239   3.762   2.897  1.6717 -0.4793  0.2828
 2247SOL     OW 6739   3.568   2.592   0.749 -0.2507  0.3023  0.1643
 2247SOL    HW1 6740   3.550   2.632   0.664 -0.1604  1.1278  0.5226
 2247SOL    HW2 6741   3.649   2.633   0.779 -1.2018  1.3628  1.4362
 2248SOL     OW 6742   3.852   0.517   4.483  0.5437 -0.1505  0.0625
 2248SOL    HW1 6743   3.936   0.544   4.447  0.5649 -0.3149 -0.0097
 2248SOL    HW2 6744   3.864   0.426   4.509  0.0495 -0.5324 -0.9982
 2249SOL     OW 6745   1.307   4.858   4.428 -0.1263 -0.2687 -0.0648
 2249SOL    HW1 6746   1.232   4.918   4.440  0.1423  0.1359 -0.3734
 2249SOL    HW2 6747   1.368   4.907   4.372  0.8514 -0.1720  1.0526
 2250SOL     OW 6748   4.370   1.354   1.283  0.3498  0.3310 -0.4648
 2250SOL    HW1 6749   4.442   1.353   1.220  0.4429  0.4081 -0.3612
 2250SOL    HW2 6750   4.342   1.263   1.290  2.5032 -0.2829  1.8516
 2251SOL     OW 6751   3.973   0.824   4.922  1.0995  0.1916 -0.0369
 2251SOL    HW1 6752   3.966   0.753   4.858  0.5318  0.9244 -0.8199
 2251SOL    HW2 6753   4.067   0.843   4.927  1.1441  0.1756 -0.7240
 2252SOL     OW 6754   4.799   0.358   1.108  0.0188  0.1303  0.0564
 2252SOL    HW1 6755   4.815   0.450   1.086  1.1373  0.2248  1.1206
 2252SOL    HW2 6756   4.887   0.321   1.118 -0.4258 -0.9663 -0.0165
 2253SOL     OW 6757   4.875   5.465   0.803 -0.1407  0.0524  0.1410
 2253SOL    HW1 6758   4.878   5.464   0.707  0.3183 -1.0471  0.1508
 2253SOL    HW2 6759   4.963   5.490   0.829  0.6754 -2.6985  0.2676
 2254SOL     OW 6760   2.154   0.544   0.425  0.2616  0.4916  0.0828
 2254SOL    HW1 6761   2.151   0.461   0.378  1.1556  0.3381  0.2778
 2254SOL    HW2 6762   2.066   0.555   0.459 -0.0876  0.0239 -0.6246
 2255SOL     OW 6763   2.312   1.549   2.383 -0.2719 -0.0530 -0.2141
 2255SOL    HW1 6764   2.367   1.536   2.305  0.0448 -4.0721  0.4232
 2255SOL    HW2 6765   2.231   1.502   2.363 -1.8893  2.3421  0.4228
 2256SOL     OW 6766   3.905   2.118   0.142 -0.0235 -0.2080 -0.2146
 2256SOL    HW1 6767   3.851   2.071   0.205 -1.2764  0.2649 -0.8940
 2256SOL    HW2 6768   3.875   2.209   0.147 -1.0581 -0.3616 -2.3316
 2257SOL     OW 6769   3.325   0.434   0.878 -0.4159  0.0203 -0.1671
 2257SOL    HW1 6770   3.292   0.365   0.820 -0.6637  1.6797 -2.1103
 2257SOL    HW2 6771   3.344   0.389   0.960  1.0146 -2.7088 -1.8284
 2258SOL     OW 6772   0.745   1.302   3.659  0.3608 -0.2597 -0.8386
 2258SOL    HW1 6773   0.794   1.252   3.725  1.1126  1.5136  0.0383
 2258SOL    HW2 6774   0.800   1.379   3.643 -0.2240 -0.2297 -2.9491
 2259SOL     OW 6775   5.107   2.231   1.789 -0.5245 -0.2045 -0.3793
 2259SOL    HW1 6776   5.015   2.211   1.805 -0.4732  0.7097  1.3455
 2259SOL    HW2 6777   5.140   2.156   1.740 -1.8862 -1.1157  0.0476
 2260SOL     OW 6778   2.818   1.742   3.300  0.4079  0.1520  0.2633
 2260SOL    HW1 6779   2.855   1.671   3.351 -0.6768 -0.6609 -0.0552
 2260SOL    HW2 6780   2.790   1.807   3.365  0.9862  0.1003  0.5725
 2261SOL     OW 6781   0.788   4.873   1.224  0.1711 -0.0899 -0.0699
 2261SOL    HW1 6782   0.868   4.906   1.184 -0.5795  0.0828 -1.5376
 2261SOL    HW2 6783   0.756   4.807   1.162 -0.7466 -0.2547  0.5513
 2262SOL     OW 6784   0.509   4.596   4.041  0.1320 -0.4447 -0.1700
 2262SOL    HW1 6785   0.486   4.565   3.954 -0.4424 -0.3727 -0.0488
 2262SOL    HW2 6786   0.497   4.519   4.097 -3.6127  0.4793  0.5319
 2263SOL     OW 6787   2.496   0.875   0.376  0.4663  0.7098  0.3661
 2263SOL    HW1 6788   2.522   0.785   0.358  2.9326  1.3733  0.1277
 2263SOL    HW2 6789   2.556   0.928   0.323 -1.5748  2.4952 -0.2802
 2264SOL     OW 6790   3.256   5.393   3.832  0.1246  0.4375  0.5302
 2264SOL    HW1 6791   3.262   5.314   3.778  0.5465  1.6992 -1.3690
 2264SOL    HW2 6792   3.347   5.418   3.848  0.0594  1.8034 -0.9318
 2265SOL     OW 6793   4.857   3.756   3.083  0.5893  0.1166 -0.3740
 2265SOL    HW1 6794   4.807   3.838   3.083 -0.7266 -0.6379 -1.5354
 2265SOL    HW2 6795   4.881   3.742   2.991  0.3614 -1.0385 -0.2739
 2266SOL     OW 6796   0.602   0.556   1.166  0.4750  0.6660 -0.2023
 2266SOL    HW1 6797   0.523   0.503   1.175  1.0919 -0.2676 -0.1466
 2266SOL    HW2 6798   0.665   0.499   1.123  1.1991  1.3197 -0.0501
 2267SOL     OW 6799   0.651   4.183   3.406  0.9792  0.5478  0.0677
 2267SOL    HW1 6800   0.703   4.242   3.461 -0.6913  1.9492  0.2383
 2267SOL    HW2 6801   0.693   4.185   3.320  1.2723  1.5676  0.2305
 2268SOL     OW 6802   1.535   4.253   5.265  0.6165  0.5015  0.2870
 2268SOL    HW1 6803   1.622   4.278   5.296  0.3108  1.4103  0.4563
 2268SOL    HW2 6804   1.510   4.324   5.206 -0.2830  0.5925  0.7545
 2269SOL     OW 6805   5.474   5.715   5.463  0.6043 -0.4686 -0.2187
 2269SOL    HW1 6806   5.387   5.685   5.435  0.1928  0.3912  0.0755
 2269SOL    HW2 6807   5.525   5.719   5.383 -0.0648  0.3715 -0.6298
 2270SOL     OW 6808   3.163   0.158   1.161  0.7101  0.3877  0.1767
 2270SOL    HW1 6809   3.081   0.180   1.115  0.8525  0.9389  0.1802
 2270SOL    HW2 6810   3.214   0.110   1.097  0.0645 -0.6514  0.4221
 2271SOL     OW 6811   2.905   4.716   3.523 -0.2580  0.2994  0.5706
 2271SOL    HW1 6812   2.907   4.621   3.529  0.2287  0.2232 -0.5592
 2271SOL    HW2 6813   2.862   4.734   3.439  1.1661  1.0323 -0.0366
 2272SOL     OW 6814   2.425   0.626   5.762 -0.3811  0.4216  0.4939
 2272SOL    HW1 6815   2.425   0.531   5.768 -0.1008  0.4197  0.4704
 2272SOL    HW2 6816   2.517   0.650   5.750 -0.5407  0.6418 -0.3660
 2273SOL     OW 6817   3.953   1.726   3.851  1.0658  0.7580  0.3470
 2273SOL    HW1 6818   3.889   1.655   3.852  2.4465 -0.5875 -1.0041
 2273SOL    HW2 6819   3.938   1.773   3.933 -1.0338 -0.0224  0.4838
 2274SOL     OW 6820   2.514   0.446   1.015 -0.0757 -0.2682 -0.0814
 2274SOL    HW1 6821   2.594   0.464   0.965 -0.0749 -0.1382 -0.0329
 2274SOL    HW2 6822   2.451   0.415   0.949  0.2483 -1.1105 -0.0065
 2275SOL     OW 6823   2.598   3.822   1.359 -0.4765 -0.2195 -0.3967
 2275SOL    HW1 6824   2.635   3.767   1.289 -1.4566 -2.0181  0.4281
 2275SOL    HW2 6825   2.564   3.899   1.314  0.7260 -0.3686 -1.6309
 2276SOL     OW 6826   0.848   5.927   2.126  0.3886 -0.3636 -0.6317
 2276SOL    HW1 6827   0.785   5.950   2.194 -1.0791 -0.9125 -1.7460
 2276SOL    HW2 6828   0.889   6.010   2.102 -1.1784  0.3190 -1.0741
 2277SOL     OW 6829   1.899   2.379   5.692  0.4230  0.1146  0.1965
 2277SOL    HW1 6830   1.991   2.394   5.670  0.2076 -0.4138 -1.1921
 2277SOL    HW2 6831   1.857   2.464   5.677  0.3130 -0.1864 -1.4217
 2278SOL     OW 6832   5.950   0.296   2.012  0.3995  0.3129 -0.4223
 2278SOL    HW1 6833   5.971   0.389   2.011 -0.6208  0.5478 -1.0363
 2278SOL    HW2 6834   5.873   0.288   1.956  0.6272 -0.9373 -0.5876
 2279SOL     OW 6835   2.375   5.745   1.743  0.1384  0.6382  0.2150
 2279SOL    HW1 6836   2.407   5.820   1.693  0.7845 -0.2151 -0.7166
 2279SOL    HW2 6837   2.365   5.778   1.832 -2.2345  2.5477 -0.6575
 2280SOL     OW 6838   1.174   3.792   2.491  0.1420  0.1296  0.2735
 2280SOL    HW1 6839   1.232   3.866   2.509  1.4344 -1.1411  1.5529
 2280SOL    HW2 6840   1.086   3.828   2.503  0.5585  2.0979 -1.6970
 2281SOL     OW 6841   3.596   4.776   5.486 -0.2771 -0.1567  0.4631
 2281SOL    HW1 6842   3.512   4.785   5.530 -0.5281  1.4909 -0.2689
 2281SOL    HW2 6843   3.596   4.686   5.453 -0.2802 -1.2979  3.2889
 2282SOL     OW 6844   0.744   0.270   5.288 -0.7220 -0.4222 -0.2004
 2282SOL    HW1 6845   0.774   0.294   5.201 -1.1657 -1.3241 -0.6125
 2282SOL    HW2 6846   0.665   0.323   5.301 -0.7178 -0.3687 -0.3892
 2283SOL     OW 6847   1.450   2.287   5.678 -0.0652  0.4402 -0.2611
 2283SOL    HW1 6848   1.475   2.220   5.741 -2.1112 -0.5329 -0.4003
 2283SOL    HW2 6849   1.412   2.357   5.731  2.3319  1.7185 -0.0878
 2284SOL     OW 6850   3.472   0.423   4.737  0.5602  0.5909 -0.0660
 2284SOL    HW1 6851   3.560   0.432   4.774  0.7228 -1.9111  0.2924
 2284SOL    HW2 6852   3.466   0.331   4.710 -1.6806  0.8946 -0.8057
 2285SOL     OW 6853   3.165   1.064   4.501  0.2949 -0.1503  0.1164
 2285SOL    HW1 6854   3.128   1.067   4.413 -1.0078  1.1270  0.6693
 2285SOL    HW2 6855   3.245   1.116   4.496  0.8378 -1.0193 -0.5490
 2286SOL     OW 6856   3.465   0.274   0.538  0.5495 -0.6099  0.4460
 2286SOL    HW1 6857   3.405   0.297   0.609 -1.9100 -1.4471 -1.2512
 2286SOL    HW2 6858   3.479   0.356   0.491  1.8574 -0.1402  1.5788
 2287SOL     OW 6859   5.211   4.382   5.017  0.3384 -0.0365  0.1851
 2287SOL    HW1 6860   5.296   4.417   4.993  0.0294 -0.5743 -1.9040
 2287SOL    HW2 6861   5.225   4.288   5.025  0.2284  0.0285  1.3157
 2288SOL     OW 6862   2.636   0.889   2.740  0.2810 -0.0080 -0.2148
 2288SOL    HW1 6863   2.583   0.879   2.661  1.3535 -0.0212 -0.9383
 2288SOL    HW2 6864   2.725   0.868   2.713  0.2289 -3.3550  1.7338
 2289SOL     OW 6865   2.153   0.775   1.637 -0.0183  0.4204 -0.2564
 2289SOL    HW1 6866   2.129   0.861   1.604 -2.1772  0.5820  1.4626
 2289SOL    HW2 6867   2.139   0.781   1.732 -0.8609 -1.9871 -0.1573
 2290SOL     OW 6868   3.370   2.618   5.506  0.0906  0.2204 -0.5723
 2290SOL    HW1 6869   3.379   2.527   5.481  1.1758  1.2038 -4.3855
 2290SOL    HW2 6870   3.455   2.641   5.546 -0.0668 -0.3058  0.0809
 2291SOL     OW 6871   4.696   1.492   1.328  0.0681 -0.3643  0.0629
 2291SOL    HW1 6872   4.763   1.425   1.347 -1.4547 -1.4607  1.9847
 2291SOL    HW2 6873   4.642   1.453   1.259  0.3552 -0.2569 -0.2231
 2292SOL     OW 6874   3.827   4.099   5.274 -0.2859  0.1077  0.6359
 2292SOL    HW1 6875   3.786   4.065   5.195  0.7704  0.2876 -0.0111
 2292SOL    HW2 6876   3.877   4.024   5.308  2.0465  0.8920 -0.7901
 2293SOL     OW 6877   2.578   1.298  -0.002  0.2708 -0.5736  0.4277
 2293SOL    HW1 6878   2.629   1.337   0.069  0.5578 -0.3395  0.0965
 2293SOL    HW2 6879   2.501   1.261   0.041  1.0227 -1.4886  1.0257
 2294SOL     OW 6880   3.139   4.862   4.761  0.4942  0.3617  0.1498
 2294SOL    HW1 6881   3.071   4.818   4.710  0.1837  1.0375 -0.0332
 2294SOL    HW2 6882   3.154   4.805   4.836 -0.2783  0.2079  0.1930
 2295SOL     OW 6883   2.370   0.865   0.621 -0.0240  0.4073 -0.1253
 2295SOL    HW1 6884   2.434   0.844   0.690 -0.4914  1.1513  0.5403
 2295SOL    HW2 6885   2.423   0.873   0.542  0.3845 -1.7462 -0.1500
 2296SOL     OW 6886   4.071   2.539   4.181  0.4376  0.3734 -0.2790
 2296SOL    HW1 6887   4.107   2.532   4.093 -2.0997 -0.9829 -1.3163
 2296SOL    HW2 6888   4.126   2.481   4.234  1.5564  0.6587 -1.0805
 2297SOL     OW 6889   3.017   0.501   0.319 -0.2272  0.7329 -0.0093
 2297SOL    HW1 6890   2.966   0.448   0.258  2.2082 -0.9994 -0.6839
 2297SOL    HW2 6891   3.018   0.588   0.279 -2.3969  0.7853 -0.0626
 2298SOL     OW 6892   1.847   0.999   3.948 -0.1117  0.3439  0.5201
 2298SOL    HW1 6893   1.827   1.054   3.873  0.6512  0.1888  0.1893
 2298SOL    HW2 6894   1.927   0.953   3.923 -0.4111 -0.4790  1.0206
 2299SOL     OW 6895   3.151   4.168   5.003 -0.0025  0.2329  0.0293
 2299SOL    HW1 6896   3.082   4.229   5.029  0.4190 -0.2277  2.4377
 2299SOL    HW2 6897   3.210   4.164   5.079  0.4572 -2.4825 -0.3829
 2300SOL     OW 6898   2.053   3.146   4.922 -0.2232  0.0021 -0.2813
 2300SOL    HW1 6899   2.083   3.100   5.001  0.9316  0.2742 -0.5428
 2300SOL    HW2 6900   1.958   3.144   4.928 -0.1778  0.9797  1.7053
 2301SOL     OW 6901   2.154   0.956   5.627 -0.1242  0.1266  0.4551
 2301SOL    HW1 6902   2.215   0.995   5.688  0.8501 -0.1361 -0.3283
 2301SOL    HW2 6903   2.068   0.986   5.656  0.4367  1.1491  1.1016
 2302SOL     OW 6904   1.061   0.762   3.229 -0.1481  0.0070  0.4579
 2302SOL    HW1 6905   0.969   0.758   3.252 -0.0073 -0.0462  1.0210
 2302SOL    HW2 6906   1.088   0.671   3.221 -0.5238  0.0123 -1.2982
 2303SOL     OW 6907   1.822   1.892   2.476  0.4036  0.1409  0.1684
 2303SOL    HW1 6908   1.882   1.965   2.494  0.4304  0.3917 -0.8685
 2303SOL    HW2 6909   1.858   1.851   2.398 -0.7572  0.2784 -0.4586
 2304SOL     OW 6910   0.190   5.319   0.981  0.3092  0.1343  0.1679
 2304SOL    HW1 6911   0.173   5.355   1.068 -0.4873  1.2701 -0.4343
 2304SOL    HW2 6912   0.282   5.290   0.985 -0.1270 -1.1674  1.8117
 2305SOL     OW 6913   3.511   2.097   4.988 -0.2630  0.1993  0.3843
 2305SOL    HW1 6914   3.582   2.092   4.924 -0.0974  1.1582  0.4772
 2305SOL    HW2 6915   3.450   2.161   4.951  0.0437  1.0944  1.3651
 2306SOL     OW 6916   5.348   1.385   5.582  0.0683  0.2056  0.0783
 2306SOL    HW1 6917   5.350   1.290   5.586  2.9066  0.0440 -2.0966
 2306SOL    HW2 6918   5.293   1.405   5.506 -0.1670  0.2791  0.2683
 2307SOL     OW 6919   4.775   5.636   3.192 -0.0937  0.6007 -0.0810
 2307SOL    HW1 6920   4.698   5.669   3.237 -0.3603  0.2436 -0.2767
 2307SOL    HW2 6921   4.800   5.557   3.239  0.2228  0.7759  0.0519
 2308SOL     OW 6922   3.868   1.157   3.585 -0.0889 -0.3967  0.8719
 2308SOL    HW1 6923   3.955   1.175   3.621 -0.8743  1.2354  2.0928
 2308SOL    HW2 6924   3.870   1.063   3.566  1.0716 -0.9913  3.4045
 2309SOL     OW 6925   2.430   2.790   0.087 -0.2568 -0.6906  0.1148
 2309SOL    HW1 6926   2.441   2.729   0.160  0.2984 -0.9869 -0.2115
 2309SOL    HW2 6927   2.341   2.825   0.098  0.3508  0.4310  1.8017
 2310SOL     OW 6928   2.401   1.435   1.555  0.0667 -0.3484  0.1419
 2310SOL    HW1 6929   2.366   1.453   1.468 -0.2670 -0.4634  0.2505
 2310SOL    HW2 6930   2.476   1.378   1.540  1.1029  1.0521 -0.2048
 2311SOL     OW 6931   2.641   1.315   1.476 -0.6200  0.1399 -0.9148
 2311SOL    HW1 6932   2.714   1.359   1.518 -1.5176  2.0944 -1.3097
 2311SOL    HW2 6933   2.678   1.277   1.397  0.4018 -0.8087 -0.0135
 2312SOL     OW 6934   3.273   3.687   1.230 -0.2045  0.1329  0.1806
 2312SOL    HW1 6935   3.260   3.742   1.307  2.4252  1.9085 -0.5146
 2312SOL    HW2 6936   3.367   3.694   1.212  0.2879 -4.4360 -0.1281
 2313SOL     OW 6937   1.314   0.481   0.919  0.6688  0.0785  0.1120
 2313SOL    HW1 6938   1.325   0.574   0.937 -0.3098 -0.3146  3.5323
 2313SOL    HW2 6939   1.325   0.439   1.005  0.3874 -2.8851 -1.1894
 2314SOL     OW 6940   2.795   5.232   4.447 -0.1459 -0.8625 -0.4098
 2314SOL    HW1 6941   2.861   5.295   4.419 -1.8327  1.3479  0.2778
 2314SOL    HW2 6942   2.785   5.247   4.541 -2.3089 -0.3940 -0.6679
 2315SOL     OW 6943   0.687   4.388   0.992 -0.0776  0.1290  0.2734
 2315SOL    HW1 6944   0.763   4.363   1.043  0.2541  2.9077  1.2946
 2315SOL    HW2 6945   0.711   4.366   0.902  0.6951 -1.7489  0.8995
 2316SOL     OW 6946   1.146   1.989   1.347 -0.3322 -0.5958  0.3513
 2316SOL    HW1 6947   1.225   2.044   1.347 -0.8784  0.3712 -2.3334
 2316SOL    HW2 6948   1.129   1.971   1.439  1.3431  1.6264  1.1957
 2317SOL     OW 6949   2.758   1.366   0.190 -0.1886  0.2486  0.4668
 2317SOL    HW1 6950   2.771   1.412   0.273  0.0345 -1.3443  1.3584
 2317SOL    HW2 6951   2.838   1.385   0.140  0.3910 -0.0485  1.2552
 2318SOL     OW 6952   2.958   0.433   1.968 -0.1930  0.2746 -0.5867
 2318SOL    HW1 6953   3.033   0.377   1.988 -1.9884 -1.2854  2.4484
 2318SOL    HW2 6954   2.932   0.406   1.880  1.1207 -1.1412 -0.5939
 2319SOL     OW 6955   3.356   1.680   0.119 -0.1730  0.4310  0.1511
 2319SOL    HW1 6956   3.351   1.743   0.047  2.3758  0.5538 -0.0255
 2319SOL    HW2 6957   3.305   1.721   0.190 -2.9390  0.1882 -1.5476
 2320SOL     OW 6958   4.175   1.965   1.907  0.2826  0.0439 -0.1074
 2320SOL    HW1 6959   4.212   1.950   1.994  1.8418 -1.6147 -0.9722
 2320SOL    HW2 6960   4.096   1.910   1.905 -0.8475  1.5743  0.8695
 2321SOL     OW 6961   2.667   4.706   1.525 -0.9293  0.2098  0.2026
 2321SOL    HW1 6962   2.738   4.752   1.481 -0.2308 -0.2211  0.8396
 2321SOL    HW2 6963   2.612   4.775   1.561  1.6877  0.7299  3.7226
 2322SOL     OW 6964   2.559   4.275   5.940  0.9499  0.0158 -0.0937
 2322SOL    HW1 6965   2.482   4.223   5.918  1.5321 -0.3927 -1.2279
 2322SOL    HW2 6966   2.605   4.222   6.005  1.1156 -0.5224 -0.6381
 2323SOL     OW 6967   5.672   2.718   0.356  0.0254  0.1311 -0.0096
 2323SOL    HW1 6968   5.637   2.773   0.426  0.7951  0.0082  0.4779
 2323SOL    HW2 6969   5.669   2.773   0.278 -2.1089 -0.1615 -0.1979
 2324SOL     OW 6970   4.295   4.606   0.334  0.0149  0.1523  0.2265
 2324SOL    HW1 6971   4.350   4.648   0.400 -0.6177 -0.0034  0.8738
 2324SOL    HW2 6972   4.304   4.513   0.351  0.5698  0.0573 -0.5165
 2325SOL     OW 6973   3.850   4.877   1.925  0.1276 -0.3445 -0.2167
 2325SOL    HW1 6974   3.768   4.845   1.963 -0.2442  0.9087  0.0731
 2325SOL    HW2 6975   3.882   4.804   1.872 -1.8580 -0.3969 -1.4204
 2326SOL     OW 6976   0.353   4.471   4.851  0.3703  0.0747 -0.3086
 2326SOL    HW1 6977   0.443   4.443   4.867  0.4982  0.6480  0.0158
 2326SOL    HW2 6978   0.324   4.419   4.776  1.0371  0.0196 -0.5320
 2327SOL     OW 6979   1.782   1.225   0.834  1.1439  0.9473 -0.0262
 2327SOL    HW1 6980   1.744   1.267   0.757  1.2830  0.9980 -0.0684
 2327SOL    HW2 6981   1.802   1.297   0.894 -0.7759  0.7756  0.9036
 2328SOL     OW 6982   3.999   1.091   0.071 -0.4353  0.3278 -0.2885
 2328SOL    HW1 6983   3.996   0.996   0.071  0.8580  0.2687  0.3819
 2328SOL    HW2 6984   3.975   1.116  -0.018 -0.8766 -0.6169 -0.4402
 2329SOL     OW 6985   4.777   2.274   2.656 -0.7835 -0.0550 -0.3826
 2329SOL    HW1 6986   4.725   2.237   2.585 -1.5824  0.1126  0.1057
 2329SOL    HW2 6987   4.811   2.197   2.703  0.7729 -0.1937 -1.6387
 2330SOL     OW 6988   4.220   1.672   3.778 -0.5148  0.1120  0.0978
 2330SOL    HW1 6989   4.168   1.733   3.830  1.1006  1.5704  0.0869
 2330SOL    HW2 6990   4.226   1.594   3.832 -2.4663 -0.0366  0.1974
 2331SOL     OW 6991   3.417   3.375   4.957  0.4123 -0.2988  0.5822
 2331SOL    HW1 6992   3.487   3.338   5.011  1.4172 -1.2374 -1.2646
 2331SOL    HW2 6993   3.339   3.324   4.980  0.4794  0.2457  2.1119
 2332SOL     OW 6994   5.798   1.576   2.060 -0.3034 -0.4845 -0.2294
 2332SOL    HW1 6995   5.832   1.487   2.057 -2.9563 -1.6846  1.4767
 2332SOL    HW2 6996   5.808   1.603   2.151  3.4483  2.4033 -1.2446
 2333SOL     OW 6997   5.976   1.047   0.901 -0.0014 -0.1767 -0.3606
 2333SOL    HW1 6998   5.963   0.960   0.863  0.1396  0.7832 -2.8042
 2333SOL    HW2 6999   5.887   1.081   0.915 -0.1023  0.0781 -1.4834
 2334SOL     OW 7000   2.675   1.332   1.835 -0.1592  0.2033 -0.3697
 2334SOL    HW1 7001   2.749   1.354   1.892  0.1839  1.3997 -1.2353
 2334SOL    HW2 7002   2.619   1.409   1.837 -0.0519  0.3503 -1.7432
 2335SOL     OW 7003   3.082   5.675   1.741  0.5068  0.1293  0.2451
 2335SOL    HW1 7004   3.063   5.589   1.704  0.4748  1.0284 -2.0504
 2335SOL    HW2 7005   3.145   5.714   1.680  0.1769  1.8866  0.9512
 2336SOL     OW 7006   4.511   5.903   3.139  0.2174 -0.0681  0.1277
 2336SOL    HW1 7007   4.459   5.984   3.135 -0.0523 -0.2575 -0.2256
 2336SOL    HW2 7008   4.522   5.877   3.048  1.5346  0.3399  0.1521
 2337SOL     OW 7009   4.648   4.398   3.800 -0.7072 -0.2831 -0.1794
 2337SOL    HW1 7010   4.701   4.465   3.843 -1.9815  0.0921  0.8349
 2337SOL    HW2 7011   4.578   4.446   3.757 -0.2719 -0.7827 -1.5285
 2338SOL     OW 7012   0.926   1.666   5.761 -0.3538  0.3621 -0.2391
 2338SOL    HW1 7013   0.992   1.728   5.729 -1.5906  0.8311 -2.0344
 2338SOL    HW2 7014   0.924   1.597   5.695 -1.0466 -0.0936  0.2476
 2339SOL     OW 7015   1.138   3.439   1.942  0.0894 -0.1112  0.0439
 2339SOL    HW1 7016   1.049   3.414   1.968  0.1511  0.7119  1.1416
 2339SOL    HW2 7017   1.127   3.478   1.855 -1.0455  2.0994  1.0658
 2340SOL     OW 7018   3.267   0.753   0.550 -0.6217 -0.1693 -0.7197
 2340SOL    HW1 7019   3.257   0.770   0.644 -0.4303  0.0914 -0.7469
 2340SOL    HW2 7020   3.244   0.836   0.508 -0.1252 -0.1050 -0.8729
 2341SOL     OW 7021   0.034   5.345   3.052  0.0173 -0.4903 -0.1904
 2341SOL    HW1 7022  -0.039   5.282   3.048  0.7729 -1.3806 -0.2049
 2341SOL    HW2 7023   0.111   5.291   3.068  0.6409  0.4774  0.1235
 2342SOL     OW 7024   3.607   3.460   4.053 -0.5591 -0.6409 -0.0672
 2342SOL    HW1 7025   3.601   3.503   4.139 -0.4115  0.6087 -0.6587
 2342SOL    HW2 7026   3.525   3.482   4.009 -0.3970 -0.8128 -0.4620
 2343SOL     OW 7027   1.540   3.135   1.922  0.2224 -0.0133 -0.8302
 2343SOL    HW1 7028   1.561   3.042   1.916  0.3600  0.0533 -1.5006
 2343SOL    HW2 7029   1.444   3.138   1.920  0.1862 -0.1978  0.2319
 2344SOL     OW 7030   2.539   0.807   2.169 -0.3135  0.7760 -0.4228
 2344SOL    HW1 7031   2.573   0.730   2.123  0.8542 -0.6946  2.6383
 2344SOL    HW2 7032   2.615   0.844   2.213 -1.3986  1.8743  0.6033
 2345SOL     OW 7033   4.382   2.926   4.960 -0.4851  0.1260  0.4047
 2345SOL    HW1 7034   4.328   2.869   5.015  1.1530 -2.5416 -0.6085
 2345SOL    HW2 7035   4.355   2.907   4.871 -0.8559  2.0548  0.0456
 2346SOL     OW 7036   2.632   2.882   1.573  0.4085 -0.0689  0.1057
 2346SOL    HW1 7037   2.607   2.964   1.530  1.7001 -0.1873 -0.9393
 2346SOL    HW2 7038   2.717   2.901   1.612  0.8231 -0.9707 -0.3451
 2347SOL     OW 7039   4.817  -0.014   1.027 -0.2696  0.3151 -0.1947
 2347SOL    HW1 7040   4.741   0.040   1.005  0.2355  1.1510  0.1128
 2347SOL    HW2 7041   4.892   0.034   0.993  0.3877  0.8313  1.8882
 2348SOL     OW 7042   3.625   5.793   5.728  0.3960  0.8178  0.1906
 2348SOL    HW1 7043   3.655   5.767   5.815 -0.8100 -1.0686  0.1009
 2348SOL    HW2 7044   3.538   5.754   5.720 -0.5105  2.8988 -0.9973
 2349SOL     OW 7045   3.642   1.469   1.229 -0.2580  0.4090 -0.1067
 2349SOL    HW1 7046   3.608   1.435   1.146 -1.0659  0.8998  0.0109
 2349SOL    HW2 7047   3.581   1.436   1.295  0.9024 -0.7672  0.4308
 2350SOL     OW 7048   5.034   2.798   4.878  0.2465 -0.6225  0.0820
 2350SOL    HW1 7049   5.114   2.750   4.857  0.1767 -0.9180  0.4843
 2350SOL    HW2 7050   4.965   2.753   4.830  0.1698 -0.9739  0.5153
 2351SOL     OW 7051   3.800   1.527   2.003  0.4230 -0.1634 -0.3372
 2351SOL    HW1 7052   3.778   1.435   2.016 -0.7039  0.1584  0.1752
 2351SOL    HW2 7053   3.783   1.568   2.088 -2.0665  1.0437 -1.3167
 2352SOL     OW 7054   3.459   4.812   0.290 -0.0791  0.7401  0.1041
 2352SOL    HW1 7055   3.480   4.858   0.371  0.3514  0.3138  0.2390
 2352SOL    HW2 7056   3.464   4.879   0.222 -1.0949  1.2393  0.5079
 2353SOL     OW 7057   0.970   1.522   1.116  0.6093 -0.5134  0.1521
 2353SOL    HW1 7058   0.996   1.587   1.051  0.7155 -0.6090  0.0994
 2353SOL    HW2 7059   0.879   1.503   1.094  0.6769 -0.6254 -0.0366
 2354SOL     OW 7060   4.613   2.763   1.236 -0.3167 -0.1378 -0.3339
 2354SOL    HW1 7061   4.662   2.695   1.280 -2.6827 -0.5680  1.8697
 2354SOL    HW2 7062   4.638   2.844   1.280 -0.4257 -0.1352 -0.2763
 2355SOL     OW 7063   2.269   1.480   4.931  0.2447 -0.7057 -0.3926
 2355SOL    HW1 7064   2.278   1.531   5.011  0.4685  1.3975 -1.6924
 2355SOL    HW2 7065   2.174   1.473   4.917  0.2112 -0.3831 -0.3415
 2356SOL     OW 7066   1.413   1.647   1.989 -0.2811 -0.0670 -0.7951
 2356SOL    HW1 7067   1.444   1.696   1.913  1.7917 -1.5228 -0.9640
 2356SOL    HW2 7068   1.328   1.614   1.963 -0.2874  0.7379 -1.8789
 2357SOL     OW 7069   4.050   0.645   4.359  0.4421  0.0230 -0.0557
 2357SOL    HW1 7070   4.081   0.602   4.280  0.2881 -2.1829  1.0083
 2357SOL    HW2 7071   3.974   0.696   4.330 -0.2293 -1.5408 -1.1915
 2358SOL     OW 7072   3.605   2.736   5.600 -0.0371 -0.1649  0.0852
 2358SOL    HW1 7073   3.695   2.723   5.629 -0.1730 -1.3207  0.0354
 2358SOL    HW2 7074   3.614   2.774   5.512  0.3754  1.5660  0.8412
 2359SOL     OW 7075   4.145   2.639   0.749  0.2826 -0.0104  0.2583
 2359SOL    HW1 7076   4.163   2.716   0.694 -0.2699  1.5232  2.0988
 2359SOL    HW2 7077   4.208   2.573   0.719  1.1663  1.3386 -1.0311
 2360SOL     OW 7078   3.560   5.802   0.879  0.1886  0.2434 -0.4889
 2360SOL    HW1 7079   3.606   5.871   0.831 -0.0476  0.4163 -0.4702
 2360SOL    HW2 7080   3.565   5.829   0.970  3.6346 -1.7751  0.0951
 2361SOL     OW 7081   1.297   4.047   2.522 -0.6029  0.1728 -0.4708
 2361SOL    HW1 7082   1.346   4.073   2.444 -0.9599 -4.0500 -2.3950
 2361SOL    HW2 7083   1.364   4.032   2.589  0.1252  0.2039 -1.1806
 2362SOL     OW 7084   3.889   1.436   0.612  0.3443  0.0312 -0.2076
 2362SOL    HW1 7085   3.805   1.469   0.580  0.0508  0.9139  1.3633
 2362SOL    HW2 7086   3.906   1.487   0.691  0.6989 -2.4847  1.4484
 2363SOL     OW 7087   5.135   1.403   0.524 -0.3575 -0.6097 -0.4213
 2363SOL    HW1 7088   5.051   1.449   0.528 -0.3946 -0.7198  0.0268
 2363SOL    HW2 7089   5.130   1.337   0.592  0.8905  0.7110  1.0169
 2364SOL     OW 7090   5.165   1.782   5.990  0.7919 -0.2552  0.2789
 2364SOL    HW1 7091   5.256   1.808   5.980  0.6685  0.5514  1.1874
 2364SOL    HW2 7092   5.115   1.859   5.965  0.3491 -0.6475 -0.0748
 2365SOL     OW 7093   0.588   1.573   3.630  0.9427  0.3496  0.3041
 2365SOL    HW1 7094   0.612   1.482   3.645 -1.4634 -0.4960 -0.5470
 2365SOL    HW2 7095   0.576   1.580   3.536 -1.0431  0.9304  0.5561
 2366SOL     OW 7096   4.512   2.767   0.988 -0.1744  0.1147 -0.1641
 2366SOL    HW1 7097   4.530   2.767   1.082 -0.6591 -0.2620 -0.0701
 2366SOL    HW2 7098   4.530   2.857   0.960 -0.6771  0.4016  0.4122
 2367SOL     OW 7099   2.879   2.377   2.652 -0.0522  0.3704 -0.2559
 2367SOL    HW1 7100   2.789   2.349   2.636 -0.4532  0.7634  1.1391
 2367SOL    HW2 7101   2.901   2.338   2.736  1.1238  0.2137 -0.6220
 2368SOL     OW 7102   4.019   2.296   4.918 -0.1271  0.3435 -0.2444
 2368SOL    HW1 7103   4.001   2.235   4.846 -0.9823  0.6243 -0.2880
 2368SOL    HW2 7104   3.994   2.381   4.883  1.9549  0.8773 -0.5096
 2369SOL     OW 7105   1.807   2.336   0.160 -0.0292  0.3637  0.2149
 2369SOL    HW1 7106   1.804   2.431   0.152 -1.7503  0.6233  2.8354
 2369SOL    HW2 7107   1.770   2.304   0.078 -2.7515  2.1050  0.6637
 2370SOL     OW 7108   1.720   2.668   0.897 -0.2157 -0.1763  0.4670
 2370SOL    HW1 7109   1.745   2.748   0.942 -0.8115 -0.3249  1.0658
 2370SOL    HW2 7110   1.727   2.600   0.963  0.4500 -0.6627 -0.0781
 2371SOL     OW 7111   0.739   5.992   3.252  0.2264  0.1601 -0.2197
 2371SOL    HW1 7112   0.795   6.003   3.329 -0.8662  1.6552  0.4134
 2371SOL    HW2 7113   0.737   5.897   3.237  2.3157  0.0126  0.1515
 2372SOL     OW 7114   3.930   4.868   1.356 -0.1413 -0.3540 -0.4898
 2372SOL    HW1 7115   4.000   4.837   1.413 -0.6551  0.5720  0.6822
 2372SOL    HW2 7116   3.852   4.866   1.411 -0.6535  0.5608 -1.1591
 2373SOL     OW 7117   3.920   1.049   1.375 -0.4346 -0.0470  0.2982
 2373SOL    HW1 7118   3.863   1.113   1.418 -1.1340 -1.1813  1.1346
 2373SOL    HW2 7119   4.008   1.069   1.407 -0.6113  0.6222  0.3810
 2374SOL     OW 7120   4.179   5.134   3.749  0.0246 -0.0688  0.1783
 2374SOL    HW1 7121   4.245   5.099   3.809 -0.8717  0.9672  1.8528
 2374SOL    HW2 7122   4.142   5.210   3.794 -1.3970  0.1735 -1.2653
 2375SOL     OW 7123   1.418   0.527   5.462  0.1102  0.5452 -0.0943
 2375SOL    HW1 7124   1.479   0.507   5.390 -0.8941 -0.0840 -0.8033
 2375SOL    HW2 7125   1.365   0.599   5.429 -3.0506 -2.2432 -1.7607
 2376SOL     OW 7126   3.618   5.475   5.300 -0.4655  0.3240  0.2853
 2376SOL    HW1 7127   3.696   5.506   5.255 -0.4092 -1.0927 -0.6502
 2376SOL    HW2 7128   3.607   5.384   5.271 -0.7094 -0.5187  2.7547
 2377SOL     OW 7129   1.643   2.822   1.644  0.5163 -0.4979 -0.4230
 2377SOL    HW1 7130   1.667   2.807   1.736 -0.1652  1.0705  0.0382
 2377SOL    HW2 7131   1.567   2.766   1.630  0.6781 -0.8135 -0.0694
 2378SOL     OW 7132   3.621   2.047   0.031 -0.0698 -0.1485  0.0313
 2378SOL    HW1 7133   3.667   2.064  -0.051 -0.1450  0.4805  0.1130
 2378SOL    HW2 7134   3.635   1.954   0.048 -0.5157 -0.4184 -0.9838
 2379SOL     OW 7135   3.150   5.256   5.684 -0.2205  0.2031  0.5753
 2379SOL    HW1 7136   3.190   5.337   5.651  0.4218 -0.5884 -0.6565
 2379SOL    HW2 7137   3.057   5.268   5.669 -0.1029  0.5908  0.1223
 2380SOL     OW 7138   4.414   2.794   5.613  0.4449 -0.0525  0.1397
 2380SOL    HW1 7139   4.438   2.882   5.642 -0.7025 -0.3481  2.1657
 2380SOL    HW2 7140   4.497   2.747   5.608  1.0259  0.9960 -0.5035
 2381SOL     OW 7141   4.199   1.502   0.172  0.5331  0.1653  0.4904
 2381SOL    HW1 7142   4.170   1.570   0.233  0.6163  1.5241 -0.9391
 2381SOL    HW2 7143   4.165   1.529   0.087 -1.4865 -2.8354  0.2034
 2382SOL     OW 7144   2.018   1.142   5.234  0.6009  0.3023 -0.0065
 2382SOL    HW1 7145   1.923   1.135   5.221  0.3666  1.7287  0.7789
 2382SOL    HW2 7146   2.046   1.052   5.254 -0.2451 -0.5153 -2.1490
 2383SOL     OW 7147   1.669   1.337   5.783 -0.3612  0.7184 -0.5236
 2383SOL    HW1 7148   1.612   1.271   5.823  0.4242  0.5884  0.4291
 2383SOL    HW2 7149   1.627   1.358   5.700 -2.4673  1.5334  0.6544
 2384SOL     OW 7150   4.602   5.586   1.202  0.5158 -0.0721 -0.0060
 2384SOL    HW1 7151   4.642   5.535   1.273  3.4940  0.0844 -1.4012
 2384SOL    HW2 7152   4.637   5.548   1.122 -1.5255  0.7409 -1.3631
 2385SOL     OW 7153   3.579   1.000   4.143 -0.6288  0.3626  0.1636
 2385SOL    HW1 7154   3.576   1.090   4.111  0.4518  0.6521  0.8071
 2385SOL    HW2 7155   3.644   0.958   4.087  0.0897  0.4426  0.9186
 2386SOL     OW 7156   4.671   4.659   2.124 -0.5351 -0.3543 -0.0303
 2386SOL    HW1 7157   4.720   4.623   2.198 -0.4539 -1.0881 -0.4325
 2386SOL    HW2 7158   4.579   4.643   2.145 -0.4512 -2.0016 -0.7960
 2387SOL     OW 7159   2.743   4.636   2.932  0.3166  0.2536  0.2674
 2387SOL    HW1 7160   2.773   4.708   2.877 -1.1757 -0.3289 -1.4136
 2387SOL    HW2 7161   2.799   4.562   2.908  0.4217  0.2937  0.3872
 2388SOL     OW 7162   4.490   1.958   5.519  0.1453  0.2916  0.3787
 2388SOL    HW1 7163   4.424   1.915   5.465  1.4532 -1.0137 -0.2623
 2388SOL    HW2 7164   4.532   2.021   5.460  1.3862 -0.9367 -0.0969
 2389SOL     OW 7165   3.323   5.068   5.137 -0.0465  0.1269  0.2669
 2389SOL    HW1 7166   3.391   5.132   5.117 -0.9831  0.8389 -0.7830
 2389SOL    HW2 7167   3.362   4.984   5.113  0.6271  0.4693  0.1269
 2390SOL     OW 7168   4.177   3.023   0.206 -0.2762  0.2961  0.2787
 2390SOL    HW1 7169   4.225   3.100   0.234 -1.1204  0.4435  1.3977
 2390SOL    HW2 7170   4.085   3.044   0.224 -0.7266 -0.2228 -1.1971
 2391SOL     OW 7171   4.924   1.593   3.183  0.3460  0.8857  0.3804
 2391SOL    HW1 7172   4.999   1.567   3.130 -0.0412  2.2938 -0.9198
 2391SOL    HW2 7173   4.848   1.574   3.128 -0.0634  2.4858  0.3325
 2392SOL     OW 7174   1.372   2.944   5.802 -0.2760 -0.3440  0.5328
 2392SOL    HW1 7175   1.297   2.923   5.857 -0.6297 -1.1162 -0.2340
 2392SOL    HW2 7176   1.355   2.899   5.719  1.0110 -0.4949  0.3361
 2393SOL     OW 7177   5.209   2.937   2.567 -0.1140 -0.0315  0.0588
 2393SOL    HW1 7178   5.297   2.919   2.533 -0.1078 -0.7608  0.4507
 2393SOL    HW2 7179   5.211   3.031   2.588  0.5380 -0.0148 -0.0449
 2394SOL     OW 7180   2.715   2.079   0.980  0.3388 -0.5479  0.0269
 2394SOL    HW1 7181   2.631   2.056   0.940  0.1661  0.2407 -0.0774
 2394SOL    HW2 7182   2.780   2.029   0.930 -0.0527 -1.0903  0.0494
 2395SOL     OW 7183   4.219   0.593   5.352 -0.3822  0.6581  0.5199
 2395SOL    HW1 7184   4.201   0.524   5.288 -1.1301  1.6923 -0.4173
 2395SOL    HW2 7185   4.151   0.658   5.337  0.7248  1.9367  0.8993
 2396SOL     OW 7186   3.448   5.390   5.635 -0.4236  0.0785  0.5620
 2396SOL    HW1 7187   3.530   5.434   5.613 -1.5392  2.7415  1.2266
 2396SOL    HW2 7188   3.438   5.322   5.569  1.8779  0.2577 -0.0478
 2397SOL     OW 7189   2.865   0.703   0.095 -0.1337 -0.2012  0.0158
 2397SOL    HW1 7190   2.889   0.698   0.002  0.2405  1.2816  0.0071
 2397SOL    HW2 7191   2.935   0.754   0.135 -0.1430 -1.0714  1.1849
 2398SOL     OW 7192   3.662   0.066   0.772  0.2787 -0.0813  0.4447
 2398SOL    HW1 7193   3.723   0.081   0.845  1.1825  0.0958 -0.3317
 2398SOL    HW2 7194   3.633   0.154   0.748 -0.2471 -0.1609  0.7687
 2399SOL     OW 7195   3.189   3.298   5.071 -0.1634 -0.0787  0.1072
 2399SOL    HW1 7196   3.111   3.278   5.123  1.2613  0.3663  2.5747
 2399SOL    HW2 7197   3.176   3.388   5.041 -1.0032 -0.3384 -0.3285
 2400SOL     OW 7198   3.353   0.280   1.854 -0.7514 -0.1355  0.4431
 2400SOL    HW1 7199   3.361   0.271   1.759  0.8643  1.5445  0.3550
 2400SOL    HW2 7200   3.285   0.345   1.867 -1.2688 -0.6731  0.4723
 2401SOL     OW 7201   3.673   4.360   2.553 -0.0348  0.1203  0.0033
 2401SOL    HW1 7202   3.709   4.283   2.509 -1.7377 -0.2103 -0.9090
 2401SOL    HW2 7203   3.720   4.434   2.515  1.0079 -0.4005  0.2515
 2402SOL     OW 7204   3.239   5.858   5.840 -0.1012  0.5719 -0.1564
 2402SOL    HW1 7205   3.208   5.930   5.785 -2.1394 -1.3289 -1.6471
 2402SOL    HW2 7206   3.289   5.803   5.780  0.8856  0.3692  0.8231
 2403SOL     OW 7207   5.030   4.556   0.164 -0.1117  0.3032 -0.6836
 2403SOL    HW1 7208   4.937   4.536   0.178 -0.1043 -0.0600 -1.1409
 2403SOL    HW2 7209   5.061   4.587   0.249 -0.6934  0.5912 -0.5757
 2404SOL     OW 7210   3.405   2.811   1.396  0.2650  0.4893  0.8280
 2404SOL    HW1 7211   3.363   2.730   1.366  1.6000 -0.2783  0.9805
 2404SOL    HW2 7212   3.393   2.872   1.323  0.9394 -0.4520 -0.1036
 2405SOL     OW 7213   1.657   2.314   2.254 -0.5203 -0.3758 -0.0502
 2405SOL    HW1 7214   1.570   2.352   2.264 -0.9857 -1.0703 -1.2373
 2405SOL    HW2 7215   1.701   2.371   2.192 -0.6622 -0.8556 -0.6005
 2406SOL     OW 7216   5.019   2.864   1.811  0.0642 -0.1995 -0.4762
 2406SOL    HW1 7217   5.090   2.921   1.842 -0.3600 -0.2846  0.7175
 2406SOL    HW2 7218   5.050   2.776   1.829  1.3458 -0.5042 -3.6560
 2407SOL     OW 7219   4.425   0.547   2.724 -0.3339  0.2014  0.0131
 2407SOL    HW1 7220   4.379   0.624   2.756  0.2530  1.1148 -1.2502
 2407SOL    HW2 7221   4.355   0.489   2.693 -0.7558  0.3760  0.6002
 2408SOL     OW 7222   1.567   0.273   2.732 -0.4241  0.8765 -0.1698
 2408SOL    HW1 7223   1.481   0.254   2.770  0.4339 -1.4088  0.8500
 2408SOL    HW2 7224   1.550   0.335   2.662 -3.0620 -0.3167 -0.6989
 2409SOL     OW 7225   3.440   2.786   0.115 -0.0119  0.7134  0.3176
 2409SOL    HW1 7226   3.425   2.714   0.176 -0.9480  0.1460 -0.5515
 2409SOL    HW2 7227   3.432   2.865   0.169  2.1433  0.2018  1.5151
 2410SOL     OW 7228   2.018   1.678   0.630 -0.0528  0.2157 -0.7834
 2410SOL    HW1 7229   1.975   1.704   0.549  2.7870  0.4506 -2.3685
 2410SOL    HW2 7230   2.016   1.583   0.628 -2.4413  0.1717  0.3868
 2411SOL     OW 7231   5.634   3.689   4.892 -0.2253  0.4574 -0.8926
 2411SOL    HW1 7232   5.596   3.641   4.819  0.8438  1.0059 -1.8544
 2411SOL    HW2 7233   5.670   3.768   4.853  0.2168  0.8578  0.2608
 2412SOL     OW 7234   4.582   4.809   5.522  0.1536 -0.2448 -0.5814
 2412SOL    HW1 7235   4.506   4.757   5.548  0.0686  0.4830  0.7115
 2412SOL    HW2 7236   4.546   4.890   5.487  0.3159 -0.4833 -1.3211
 2413SOL     OW 7237   5.537   2.206   1.149  0.2100  0.1968  0.2745
 2413SOL    HW1 7238   5.501   2.185   1.063 -0.1258  0.3722  0.3681
 2413SOL    HW2 7239   5.621   2.160   1.152 -1.5181 -3.2337  1.4253
 2414SOL     OW 7240   5.290   0.641   4.679  0.1125  0.1483 -0.3291
 2414SOL    HW1 7241   5.367   0.633   4.623  0.2568  1.8328 -0.4199
 2414SOL    HW2 7242   5.219   0.600   4.629  0.6168  0.0081 -0.9406
 2415SOL     OW 7243   4.048   1.286   4.855 -0.4912 -0.1786 -0.2301
 2415SOL    HW1 7244   4.053   1.279   4.950  3.5870  2.4283 -0.0002
 2415SOL    HW2 7245   4.096   1.210   4.823 -0.4883 -0.2135 -0.1442
 2416SOL     OW 7246   5.782   0.818   1.104  0.3818  0.5315 -0.1393
 2416SOL    HW1 7247   5.693   0.810   1.138  1.0796 -2.1841  1.3131
 2416SOL    HW2 7248   5.777   0.780   1.016  0.3812 -1.2081  0.5756
 2417SOL     OW 7249   4.642   5.302   4.507  0.2569  0.2177 -0.1672
 2417SOL    HW1 7250   4.561   5.273   4.549  0.8573  0.7563  1.4488
 2417SOL    HW2 7251   4.663   5.385   4.550  2.5415 -0.7428  0.7192
 2418SOL     OW 7252   2.623   2.377   5.430 -0.1555 -0.4718  0.6389
 2418SOL    HW1 7253   2.687   2.306   5.423 -0.2660 -0.4344 -1.1831
 2418SOL    HW2 7254   2.662   2.450   5.382 -1.3183 -0.2711 -0.0466
 2419SOL     OW 7255   0.768   0.592   4.972  0.0845  0.5516 -0.5305
 2419SOL    HW1 7256   0.835   0.544   5.021  0.1795  0.5201 -0.6902
 2419SOL    HW2 7257   0.690   0.537   4.975 -0.7899  1.7948  1.9942
 2420SOL     OW 7258   3.941   1.810   1.631  0.7371  0.5765 -0.8837
 2420SOL    HW1 7259   3.996   1.739   1.598 -0.9356 -1.4707  0.4573
 2420SOL    HW2 7260   3.947   1.802   1.726  0.8603  2.5770 -0.6942
 2421SOL     OW 7261   1.548   2.188   4.433 -0.3870  0.1152  0.4192
 2421SOL    HW1 7262   1.466   2.197   4.383 -0.7601  1.0952  1.1842
 2421SOL    HW2 7263   1.573   2.096   4.421  0.0965  0.5229 -2.4123
 2422SOL     OW 7264   5.548   3.748   2.811  0.0491 -0.0220  0.0208
 2422SOL    HW1 7265   5.578   3.791   2.730 -0.9111  0.0069 -0.3352
 2422SOL    HW2 7266   5.500   3.817   2.858 -0.2947 -0.3210  0.1136
 2423SOL     OW 7267   1.777   1.255   0.180 -0.1620 -0.3051 -0.3465
 2423SOL    HW1 7268   1.728   1.184   0.140 -0.4441 -0.0131 -0.5281
 2423SOL    HW2 7269   1.755   1.332   0.128 -1.8394  0.4332  1.3311
 2424SOL     OW 7270   2.750   0.891   3.090  0.2781 -0.6381  0.5089
 2424SOL    HW1 7271   2.781   0.800   3.088 -0.8444 -1.0331 -0.0592
 2424SOL    HW2 7272   2.709   0.903   3.004  1.1275  0.6773  0.2630
 2425SOL     OW 7273   4.938   0.891   4.917 -0.9969 -0.1146 -0.1622
 2425SOL    HW1 7274   4.876   0.931   4.978 -1.4841  0.0799 -0.7714
 2425SOL    HW2 7275   4.965   0.963   4.860 -0.2213 -0.2030  0.0764
 2426SOL     OW 7276   2.372   5.669   0.080  0.3656 -0.5828  0.1847
 2426SOL    HW1 7277   2.461   5.667   0.046 -0.3982 -1.2674 -1.9574
 2426SOL    HW2 7278   2.330   5.742   0.035 -0.4426 -0.9520  0.3088
 2427SOL     OW 7279   4.606   3.183   1.237  0.4149  0.0025  0.4720
 2427SOL    HW1 7280   4.616   3.276   1.215  0.1888 -0.5233 -2.1363
 2427SOL    HW2 7281   4.669   3.168   1.307  0.8243  2.0128  0.5875
 2428SOL     OW 7282   3.466   4.019   2.793  0.1951 -0.2620 -0.8626
 2428SOL    HW1 7283   3.442   4.038   2.702 -0.8213  2.2374 -0.1555
 2428SOL    HW2 7284   3.513   4.097   2.822  0.3382 -0.9349  0.8266
 2429SOL     OW 7285   4.247   0.900   1.962 -0.5377 -0.1144  0.3449
 2429SOL    HW1 7286   4.253   0.881   2.056 -1.6496 -1.6339  0.1466
 2429SOL    HW2 7287   4.296   0.981   1.951 -1.5814  0.8887  2.4739
 2430SOL     OW 7288   1.580   2.844   2.605 -0.1270  0.0923  0.7484
 2430SOL    HW1 7289   1.585   2.918   2.666  1.1142 -1.1893  2.2600
 2430SOL    HW2 7290   1.495   2.805   2.622 -0.2290  0.3667  0.8849
 2431SOL     OW 7291   3.666   1.691   1.780  1.2004 -0.2413 -0.8899
 2431SOL    HW1 7292   3.748   1.689   1.829  0.7497 -0.1825 -0.1037
 2431SOL    HW2 7293   3.651   1.601   1.753  0.4498 -0.6807  0.8426
 2432SOL     OW 7294   1.462   2.975   3.983  0.5986 -0.3684  0.0320
 2432SOL    HW1 7295   1.462   3.066   4.012  3.2340  0.4667 -2.1290
 2432SOL    HW2 7296   1.493   2.926   4.059  0.2633  0.6776  0.8706
 2433SOL     OW 7297   3.380   1.005   3.456  0.0752  0.2921  0.1117
 2433SOL    HW1 7298   3.471   1.034   3.459  0.4371 -0.7189 -0.6184
 2433SOL    HW2 7299   3.331   1.075   3.499  1.0770  1.3386 -0.4004
 2434SOL     OW 7300   2.953   5.956   0.732 -0.0447  0.2466  0.1319
 2434SOL    HW1 7301   2.859   5.953   0.751 -0.0942  1.3319  0.1224
 2434SOL    HW2 7302   2.994   5.963   0.819  0.2074 -2.7803  0.3420
 2435SOL     OW 7303   3.029   2.229   4.255  0.0478 -0.0578  0.5408
 2435SOL    HW1 7304   3.103   2.168   4.251  1.8308  1.9623  0.7892
 2435SOL    HW2 7305   3.034   2.278   4.173 -2.4166 -1.2978 -0.4517
 2436SOL     OW 7306   1.743   5.647   1.767 -0.2036  0.1171  0.0304
 2436SOL    HW1 7307   1.710   5.671   1.854 -0.7082 -0.3165 -0.0390
 2436SOL    HW2 7308   1.838   5.644   1.778 -0.2729 -0.0866  0.6094
 2437SOL     OW 7309   4.637   5.086   5.708 -0.2623  0.6133 -0.0079
 2437SOL    HW1 7310   4.694   5.081   5.631 -1.4793  0.6495 -0.9437
 2437SOL    HW2 7311   4.565   5.027   5.687 -0.1684 -0.0876  1.5162
 2438SOL     OW 7312   0.853   1.109   3.856 -0.2175  0.2540 -0.0955
 2438SOL    HW1 7313   0.930   1.130   3.803  1.7251 -0.7575  2.1255
 2438SOL    HW2 7314   0.850   1.013   3.857 -0.5090  0.2622  1.1664
 2439SOL     OW 7315   2.408   0.674   2.715 -0.1388  0.2480  0.9183
 2439SOL    HW1 7316   2.389   0.599   2.659 -1.1448  0.6448  0.7090
 2439SOL    HW2 7317   2.484   0.715   2.675 -0.5339  0.2239  0.1323
 2440SOL     OW 7318   2.364   3.477   0.330  0.3553  0.4925  0.1872
 2440SOL    HW1 7319   2.288   3.508   0.379 -0.1642 -1.3551  0.6362
 2440SOL    HW2 7320   2.359   3.523   0.246 -1.7504 -0.2069 -0.1199
 2441SOL     OW 7321   4.075   2.540   0.381  0.0356 -0.0516 -0.2854
 2441SOL    HW1 7322   4.089   2.468   0.444 -1.1212  2.1959  2.7875
 2441SOL    HW2 7323   4.007   2.508   0.323 -0.7743 -1.3313  1.2803
 2442SOL     OW 7324   4.503   3.096   3.943  0.0507 -0.6414 -0.2641
 2442SOL    HW1 7325   4.487   3.184   3.908 -2.9651 -1.4591 -1.2367
 2442SOL    HW2 7326   4.535   3.046   3.869  0.9715 -0.5822  0.0850
 2443SOL     OW 7327   1.833   2.138   4.843 -0.4536  0.1253 -0.4318
 2443SOL    HW1 7328   1.857   2.223   4.808  0.5384 -0.2487 -0.7037
 2443SOL    HW2 7329   1.882   2.130   4.925 -0.0207 -0.4523 -0.7422
 2444SOL     OW 7330   1.732   2.283   2.509 -0.6311  0.4545 -0.1830
 2444SOL    HW1 7331   1.683   2.205   2.536  0.4575 -0.1055  0.2422
 2444SOL    HW2 7332   1.707   2.297   2.418 -1.6768  0.2627  0.0709
 2445SOL     OW 7333   2.637   4.255   2.081  0.0103  0.0619  0.1800
 2445SOL    HW1 7334   2.604   4.202   2.153 -3.3185  1.5888 -0.0384
 2445SOL    HW2 7335   2.683   4.192   2.025  1.9284 -1.3151  3.0774
 2446SOL     OW 7336   3.195   1.380   5.033 -0.4257  0.5229 -0.4853
 2446SOL    HW1 7337   3.280   1.345   5.003 -0.1893  0.2003  0.5375
 2446SOL    HW2 7338   3.217   1.436   5.107 -1.2917 -1.6610  1.5737
 2447SOL     OW 7339   4.951   0.494   3.924  0.1835  0.0391 -0.3222
 2447SOL    HW1 7340   4.933   0.581   3.890 -0.1778  0.1204  0.0730
 2447SOL    HW2 7341   4.969   0.507   4.017 -2.1914 -0.5599  0.2822
 2448SOL     OW 7342   1.340   2.755   1.844  0.8907  0.2953 -0.3463
 2448SOL    HW1 7343   1.321   2.848   1.832  2.3190  1.0787  2.5352
 2448SOL    HW2 7344   1.254   2.714   1.857  0.2739  1.2672 -1.2387
 2449SOL     OW 7345   3.788   2.010   1.518 -0.0345 -0.3202  0.3736
 2449SOL    HW1 7346   3.704   1.997   1.563  0.4663  0.5266  1.5816
 2449SOL    HW2 7347   3.845   1.942   1.555  1.0020  1.6678  2.6998
 2450SOL     OW 7348   2.473   0.356   4.212  0.2261  0.0687 -0.0071
 2450SOL    HW1 7349   2.411   0.414   4.255  2.0863  1.5877  0.7489
 2450SOL    HW2 7350   2.511   0.408   4.141 -0.2805 -1.2795 -1.3364
 2451SOL     OW 7351   3.627   1.604   3.286 -0.0544  0.6687  0.2015
 2451SOL    HW1 7352   3.545   1.651   3.304 -0.8486 -0.2825 -0.7423
 2451SOL    HW2 7353   3.674   1.660   3.225 -0.5618  0.6832 -0.1850
 2452SOL     OW 7354   2.128   2.816   3.170 -0.2142  0.0753 -0.2900
 2452SOL    HW1 7355   2.090   2.728   3.165 -1.2760  0.5180 -0.2113
 2452SOL    HW2 7356   2.093   2.853   3.251  0.6842  0.3761 -0.0231
 2453SOL     OW 7357   3.634   3.784   3.385 -0.1162  0.0741  0.4216
 2453SOL    HW1 7358   3.540   3.774   3.400 -0.7472  2.0879 -1.6414
 2453SOL    HW2 7359   3.667   3.822   3.466 -1.2607  0.1880  0.8558
 2454SOL     OW 7360   1.371   5.218   2.015 -0.1605  0.1355  0.0848
 2454SOL    HW1 7361   1.422   5.203   1.935  0.8309 -0.3075  0.7854
 2454SOL    HW2 7362   1.292   5.262   1.984 -2.0711 -4.0948 -1.7806
 2455SOL     OW 7363   4.580   5.014   5.126  0.3209  0.3031  0.1284
 2455SOL    HW1 7364   4.511   4.963   5.169 -3.0331  3.5676 -0.9531
 2455SOL    HW2 7365   4.612   5.073   5.194  1.9189 -0.8762  0.4927
 2456SOL     OW 7366   4.084   0.864   0.710 -0.4631  0.0111  0.3828
 2456SOL    HW1 7367   4.089   0.951   0.670 -0.3371 -0.1223  0.1066
 2456SOL    HW2 7368   4.030   0.877   0.788 -0.3334  0.3653  0.4191
 2457SOL     OW 7369   1.875   0.540   1.543 -0.5089  0.4217 -0.1361
 2457SOL    HW1 7370   1.906   0.456   1.576 -1.1383  0.0544 -0.4464
 2457SOL    HW2 7371   1.954   0.593   1.533  0.0131 -0.4597 -0.8441
 2458SOL     OW 7372   1.075   1.057   0.594  0.1643 -0.4393 -0.3125
 2458SOL    HW1 7373   1.139   1.089   0.530  0.9669  0.6537  0.9702
 2458SOL    HW2 7374   1.001   1.117   0.586  1.6274  1.8610  2.0212
 2459SOL     OW 7375   1.952   3.339   5.965 -0.1015  0.3299  0.5215
 2459SOL    HW1 7376   1.865   3.329   6.004 -0.6053  2.4288  0.0799
 2459SOL    HW2 7377   1.936   3.381   5.880  1.2193 -1.0610 -0.4754
 2460SOL     OW 7378   1.055   0.747   1.552  0.4499 -0.0456 -0.0134
 2460SOL    HW1 7379   1.009   0.810   1.496  0.4017 -0.8697 -0.9317
 2460SOL    HW2 7380   1.011   0.664   1.536  0.0690 -0.2021  1.7084
 2461SOL     OW 7381   3.352   5.678   3.451 -0.3298  0.0914  0.4262
 2461SOL    HW1 7382   3.377   5.728   3.528 -0.9727  0.2262  0.5533
 2461SOL    HW2 7383   3.268   5.715   3.424  0.3798  0.7432 -0.9661
 2462SOL     OW 7384   2.843   1.050   3.467 -0.2736 -0.0147  0.0340
 2462SOL    HW1 7385   2.879   1.041   3.379  1.5207  1.4885  0.5325
 2462SOL    HW2 7386   2.786   1.127   3.462 -0.0681  0.1512  0.1973
 2463SOL     OW 7387   3.581   2.342   0.054  0.6355  0.2814 -0.1959
 2463SOL    HW1 7388   3.524   2.270   0.027 -0.3116  1.1912 -0.6811
 2463SOL    HW2 7389   3.657   2.334  -0.004  0.1410  0.1968 -0.8475
 2464SOL     OW 7390   5.787   2.294   5.536 -0.3921 -0.5519  0.1863
 2464SOL    HW1 7391   5.771   2.318   5.445  0.6838  0.1361  0.1546
 2464SOL    HW2 7392   5.802   2.200   5.534 -0.5403 -0.5684 -0.3268
 2465SOL     OW 7393   2.566   0.106   5.272  0.1414  0.1546 -0.0874
 2465SOL    HW1 7394   2.658   0.093   5.292 -0.0237  0.9839  1.4123
 2465SOL    HW2 7395   2.520   0.049   5.334 -0.3573  0.8533  0.2045
 2466SOL     OW 7396   3.724   1.685   4.948  0.3355 -0.0504  0.5726
 2466SOL    HW1 7397   3.643   1.659   4.904 -0.0720  1.7930  0.1126
 2466SOL    HW2 7398   3.793   1.639   4.901 -0.1214  1.5433 -1.8411
 2467SOL     OW 7399   0.875   5.548   1.953 -0.6145  0.5663  0.3825
 2467SOL    HW1 7400   0.797   5.493   1.946 -1.2612  1.5204 -0.1780
 2467SOL    HW2 7401   0.892   5.578   1.864  2.1794 -1.9206 -0.0802
 2468SOL     OW 7402   2.958   0.832   1.879  0.0868 -0.4058  0.1380
 2468SOL    HW1 7403   2.867   0.812   1.857  0.4585 -0.7518 -1.2056
 2468SOL    HW2 7404   2.954   0.921   1.915 -0.7151 -0.1647 -0.4924
 2469SOL     OW 7405   5.796   5.802   0.971 -0.0377 -0.0593 -0.2796
 2469SOL    HW1 7406   5.740   5.752   1.031  3.1133 -2.7030  0.7506
 2469SOL    HW2 7407   5.771   5.773   0.884 -2.2141  1.1076 -0.1083
 2470SOL     OW 7408   3.893   4.911   0.633  0.0510 -0.4024  0.0967
 2470SOL    HW1 7409   3.920   4.926   0.723  1.2409 -0.3109 -0.2538
 2470SOL    HW2 7410   3.928   4.986   0.585 -1.2546 -0.0361 -0.3291
 2471SOL     OW 7411   0.870   5.691   1.491  0.8072  0.1985 -0.6709
 2471SOL    HW1 7412   0.922   5.771   1.501 -0.4149  0.7176  2.6813
 2471SOL    HW2 7413   0.813   5.709   1.416  2.3099  1.3609 -1.6104
 2472SOL     OW 7414   2.876   3.889   1.414  0.1521  0.1388 -0.0697
 2472SOL    HW1 7415   2.811   3.888   1.343 -0.1026  2.4036  0.0579
 2472SOL    HW2 7416   2.839   3.947   1.480  1.6120  0.2708  0.6809
 2473SOL     OW 7417   2.905   3.146   3.931  0.1131 -0.1598  0.2571
 2473SOL    HW1 7418   2.972   3.079   3.917 -0.1514 -0.7467  1.5967
 2473SOL    HW2 7419   2.954   3.227   3.942  0.6274 -0.5980  1.3248
 2474SOL     OW 7420   5.087   5.536   1.150 -0.0389 -0.8766 -0.1848
 2474SOL    HW1 7421   5.067   5.510   1.240  0.6696 -1.1118 -0.0894
 2474SOL    HW2 7422   5.023   5.604   1.130  0.0738 -0.5113  0.6466
 2475SOL     OW 7423   3.149   1.633   2.141  0.1602  0.7248  0.0584
 2475SOL    HW1 7424   3.105   1.653   2.058  0.9630  2.1096 -0.0633
 2475SOL    HW2 7425   3.078   1.606   2.200 -0.8019  2.2417 -0.3285
 2476SOL     OW 7426   3.272   4.937   2.279  0.2374 -0.0774 -0.0199
 2476SOL    HW1 7427   3.208   4.979   2.336  0.3039 -0.2219  0.1636
 2476SOL    HW2 7428   3.353   4.937   2.331  0.2887 -0.2450 -0.1016
 2477SOL     OW 7429   3.988   0.557   2.297 -0.4196  0.3221  0.4876
 2477SOL    HW1 7430   3.901   0.598   2.303 -2.0453 -2.5335 -1.3878
 2477SOL    HW2 7431   3.977   0.471   2.338  2.2528  0.7463  2.3491
 2478SOL     OW 7432   2.342   1.587   0.546  0.3448 -0.5378  0.1678
 2478SOL    HW1 7433   2.252   1.563   0.524 -0.3670  1.6386  0.4433
 2478SOL    HW2 7434   2.386   1.597   0.462 -0.6888  1.8050 -0.1636
 2479SOL     OW 7435   3.545   3.351   1.084 -0.4408  0.5467 -0.1600
 2479SOL    HW1 7436   3.510   3.263   1.069  0.8575  0.2500 -1.6805
 2479SOL    HW2 7437   3.607   3.365   1.013  2.1521  1.2588  2.0814
 2480SOL     OW 7438   0.700   3.711   3.039  0.0721  0.5215 -0.2785
 2480SOL    HW1 7439   0.613   3.673   3.043 -0.2062  1.2244  1.5099
 2480SOL    HW2 7440   0.728   3.716   3.131  1.4062  1.5896 -0.7071
 2481SOL     OW 7441   1.358   1.653   4.867 -0.3964  0.3756  0.3219
 2481SOL    HW1 7442   1.318   1.729   4.910 -0.6231  0.4433 -0.0079
 2481SOL    HW2 7443   1.319   1.577   4.911 -0.2227  0.4456  0.6036
 2482SOL     OW 7444   3.838   5.827   1.662  0.2951 -0.0240 -0.0819
 2482SOL    HW1 7445   3.774   5.761   1.690  0.9178 -0.1786  1.0322
 2482SOL    HW2 7446   3.792   5.910   1.670  0.3001 -0.1114  0.9776
 2483SOL     OW 7447   3.274   5.541   1.133 -0.1644  0.1317  1.0985
 2483SOL    HW1 7448   3.298   5.524   1.042  0.1212 -1.4081  1.4376
 2483SOL    HW2 7449   3.190   5.586   1.128  0.5048  1.3128  0.0490
 2484SOL     OW 7450   1.568   4.976   4.332 -0.3194 -0.7542 -0.4271
 2484SOL    HW1 7451   1.516   5.054   4.313 -2.5191 -2.1540 -0.5725
 2484SOL    HW2 7452   1.608   4.952   4.249 -1.1593 -0.8113 -0.8239
 2485SOL     OW 7453   1.644   2.920   3.438 -0.2183 -0.1138  0.2138
 2485SOL    HW1 7454   1.558   2.883   3.456 -0.2433 -1.0745 -1.6796
 2485SOL    HW2 7455   1.698   2.845   3.413  1.0109  0.5518  0.8044
 2486SOL     OW 7456   2.628   3.437   3.692 -0.2447 -0.1317 -0.4064
 2486SOL    HW1 7457   2.562   3.375   3.724 -0.2455 -0.4631 -1.0188
 2486SOL    HW2 7458   2.639   3.499   3.763 -0.6851 -0.4946 -0.0084
 2487SOL     OW 7459   2.046   0.447   4.680  0.6975  0.4738 -0.4759
 2487SOL    HW1 7460   1.950   0.451   4.676  0.4484 -1.6344  1.2850
 2487SOL    HW2 7461   2.067   0.357   4.656  2.1537  0.6057  0.2231
 2488SOL     OW 7462   2.235   0.320   1.799 -0.0417 -0.0130  0.1671
 2488SOL    HW1 7463   2.242   0.294   1.891  2.2756 -0.1863 -0.0217
 2488SOL    HW2 7464   2.281   0.403   1.793  1.2181 -0.7644 -1.1115
 2489SOL     OW 7465   4.515   5.328   4.838  0.1415 -0.0161  0.0579
 2489SOL    HW1 7466   4.440   5.271   4.824 -1.4790  1.9365  0.3642
 2489SOL    HW2 7467   4.484   5.416   4.814  2.0078  1.0207  1.1649
 2490SOL     OW 7468   1.966   2.554   3.697 -0.2128 -0.0199  0.4302
 2490SOL    HW1 7469   1.999   2.502   3.770 -0.8551 -0.7295  0.2353
 2490SOL    HW2 7470   1.881   2.586   3.727  0.5235  1.6097  0.8483
 2491SOL     OW 7471   3.706   1.386   5.127 -0.5188  0.5890  0.1391
 2491SOL    HW1 7472   3.740   1.439   5.054  0.2696 -1.1678 -0.8366
 2491SOL    HW2 7473   3.765   1.405   5.200  0.3258  0.3812 -0.4688
 2492SOL     OW 7474   3.462   1.279   3.024 -0.0072 -0.5007  1.1810
 2492SOL    HW1 7475   3.422   1.328   2.952 -0.6650 -0.4014  1.6012
 2492SOL    HW2 7476   3.399   1.288   3.096  0.2309 -1.3185  1.4970
 2493SOL     OW 7477   4.362   1.174   2.970  0.1840  0.3797  0.3278
 2493SOL    HW1 7478   4.296   1.112   2.998  1.0182 -0.9174 -0.4875
 2493SOL    HW2 7479   4.313   1.244   2.927 -0.6457 -0.8248 -0.7600
 2494SOL     OW 7480   3.901   5.970   1.031  0.3762 -0.9972  0.3676
 2494SOL    HW1 7481   3.951   6.003   0.956 -1.3798 -1.8214 -1.2616
 2494SOL    HW2 7482   3.956   5.901   1.069  2.3680  1.0806  1.4245
 2495SOL     OW 7483   4.199   2.699   4.924 -0.1967 -0.5391  0.1709
 2495SOL    HW1 7484   4.275   2.642   4.935 -0.9794 -1.8123 -0.7841
 2495SOL    HW2 7485   4.222   2.755   4.850  0.8028  0.8476  1.4601
 2496SOL     OW 7486   1.693   2.421   0.408 -0.4632 -0.0618 -0.6239
 2496SOL    HW1 7487   1.713   2.371   0.329 -0.0086 -1.3158  0.2594
 2496SOL    HW2 7488   1.720   2.364   0.480  1.0292  1.8329  0.4194
 2497SOL     OW 7489   0.712   2.410   0.736  0.4268  0.4644 -0.9406
 2497SOL    HW1 7490   0.729   2.504   0.736  1.1550  0.3421 -0.3642
 2497SOL    HW2 7491   0.617   2.403   0.733  0.1942  1.2854  1.8282
 2498SOL     OW 7492   4.263   1.781   0.929  0.2877  0.3504  0.3995
 2498SOL    HW1 7493   4.210   1.804   1.005  0.2443  0.8759  0.2111
 2498SOL    HW2 7494   4.317   1.707   0.959  1.2155  1.3672  1.3467
 2499SOL     OW 7495   3.316   3.142   5.503 -0.0356 -0.4440  0.0935
 2499SOL    HW1 7496   3.299   3.122   5.595 -3.0234  0.9676 -0.0215
 2499SOL    HW2 7497   3.274   3.070   5.456  1.0396 -0.8902 -0.2070
 2500SOL     OW 7498   5.614   3.398   0.949 -0.0911 -0.0280  0.0520
 2500SOL    HW1 7499   5.531   3.444   0.938  0.4805  0.9827 -0.2462
 2500SOL    HW2 7500   5.628   3.353   0.865  0.2977  0.9150 -0.4074
 2501SOL     OW 7501   2.825   2.238   1.720  0.4479  0.1849  0.1821
 2501SOL    HW1 7502   2.904   2.221   1.668  0.8007 -0.0813  0.7957
 2501SOL    HW2 7503   2.813   2.159   1.772 -1.2629 -0.5174 -1.1942
 2502SOL     OW 7504   3.188   5.087   2.789 -0.4188  1.0449 -0.1677
 2502SOL    HW1 7505   3.205   5.009   2.736  0.3063 -1.2439  3.1642
 2502SOL    HW2 7506   3.092   5.089   2.798 -0.3496 -1.2418  1.9991
 2503SOL     OW 7507   3.445   4.521   3.385 -0.0236  0.2099  0.1821
 2503SOL    HW1 7508   3.498   4.601   3.391 -0.0782  0.1761  1.4088
 2503SOL    HW2 7509   3.362   4.550   3.347 -0.5390  1.0219  1.8352
 2504SOL     OW 7510   2.993   5.467   2.347  0.2606 -0.5304  0.1226
 2504SOL    HW1 7511   3.004   5.374   2.327 -2.2198 -1.1903  1.5303
 2504SOL    HW2 7512   2.956   5.469   2.435 -1.5647  1.6980 -0.6189
 2505SOL     OW 7513   5.713   4.065   1.848 -0.8265  0.2505  0.3692
 2505SOL    HW1 7514   5.761   4.003   1.793  0.6535  1.6164  0.0448
 2505SOL    HW2 7515   5.624   4.065   1.814  0.0303  1.0163 -2.0188
 2506SOL     OW 7516   3.756   5.742   5.963  0.2166  0.1687  0.1714
 2506SOL    HW1 7517   3.795   5.811   6.017  2.3406  0.0478 -1.0750
 2506SOL    HW2 7518   3.815   5.667   5.975 -1.0735 -0.8751  0.1548
 2507SOL     OW 7519   2.046   3.803   2.094 -0.3241  0.6820 -0.6154
 2507SOL    HW1 7520   2.032   3.816   2.188  0.1894  0.1173 -0.4592
 2507SOL    HW2 7521   2.140   3.809   2.083 -0.2792 -0.3856 -0.9193
 2508SOL     OW 7522   2.234   4.475   4.105  0.2877  0.4094 -0.2170
 2508SOL    HW1 7523   2.163   4.471   4.169  1.1366  0.2475  0.7362
 2508SOL    HW2 7524   2.209   4.546   4.046 -0.8327  0.1187 -0.1075
 2509SOL     OW 7525   3.834   5.905   2.564  0.2341  0.4542  0.3219
 2509SOL    HW1 7526   3.922   5.868   2.556  0.2949  0.1695  1.9363
 2509SOL    HW2 7527   3.783   5.862   2.495  1.2296  0.2469 -0.2993
 2510SOL     OW 7528   5.044   2.358   3.003  0.4021 -0.1919 -0.1644
 2510SOL    HW1 7529   4.962   2.405   3.018  0.6706  0.4251 -0.6282
 2510SOL    HW2 7530   5.017   2.267   2.988  0.0337 -0.7883  3.2937
 2511SOL     OW 7531   5.685   1.456   5.588 -0.0148  0.9142 -0.1548
 2511SOL    HW1 7532   5.599   1.480   5.624 -0.1743  1.1580 -0.6947
 2511SOL    HW2 7533   5.681   1.361   5.579 -0.6585  1.0297 -1.2490
 2512SOL     OW 7534   3.830   5.266   2.214 -0.0915 -0.3309 -0.2190
 2512SOL    HW1 7535   3.746   5.310   2.197 -1.2866 -1.3485  2.5120
 2512SOL    HW2 7536   3.875   5.324   2.275 -0.0862 -1.0899  0.5240
 2513SOL     OW 7537   2.977   0.177   5.522 -0.5161 -0.1734 -0.2298
 2513SOL    HW1 7538   2.919   0.195   5.596  1.1327  1.3241  0.7805
 2513SOL    HW2 7539   2.923   0.129   5.459 -2.2625 -0.5291  1.4808
 2514SOL     OW 7540   5.162   5.841   2.420  0.5780  0.1592 -0.0919
 2514SOL    HW1 7541   5.069   5.823   2.431  0.7987 -1.6074 -0.8596
 2514SOL    HW2 7542   5.182   5.906   2.487 -0.8236 -0.7333  1.2526
 2515SOL     OW 7543   2.406   1.354   4.159 -0.6411  0.0165  0.4867
 2515SOL    HW1 7544   2.345   1.421   4.129  0.5550 -0.1402 -2.7337
 2515SOL    HW2 7545   2.352   1.277   4.173 -1.4381  0.4136 -0.2938
 2516SOL     OW 7546   4.023   0.118   2.266  0.5419 -0.8581  0.0818
 2516SOL    HW1 7547   3.979   0.139   2.183 -0.0107 -0.3646  0.4910
 2516SOL    HW2 7548   4.021   0.023   2.271 -1.5295 -0.8415  0.6274
 2517SOL     OW 7549   0.911   2.254   1.449  0.5370  0.1875 -0.1085
 2517SOL    HW1 7550   0.970   2.212   1.386  2.2289 -0.7975  1.9728
 2517SOL    HW2 7551   0.970   2.301   1.508 -0.7159 -0.7543  2.0215
 2518SOL     OW 7552   2.662   0.196   1.162  0.3483  0.7167 -0.2930
 2518SOL    HW1 7553   2.701   0.171   1.245  0.0476  0.1438 -0.3189
 2518SOL    HW2 7554   2.572   0.220   1.184 -0.1745 -0.8067 -0.6303
 2519SOL     OW 7555   4.308   2.192   2.505  0.0605  0.0151  0.2659
 2519SOL    HW1 7556   4.296   2.287   2.512 -1.2333 -0.0867 -0.3622
 2519SOL    HW2 7557   4.330   2.165   2.594  1.5978  1.0373  0.2278
 2520SOL     OW 7558   3.564   1.340   0.987  0.4322  0.1317 -0.4913
 2520SOL    HW1 7559   3.538   1.251   0.965 -0.4914 -0.1285  1.4120
 2520SOL    HW2 7560   3.558   1.388   0.905 -0.1965 -1.3100 -1.3215
 2521SOL     OW 7561   1.899   0.990   0.825  0.1102  0.3175  0.4539
 2521SOL    HW1 7562   1.839   1.064   0.838 -1.2993 -0.9811  1.6798
 2521SOL    HW2 7563   1.938   1.005   0.739  0.6571  3.0184  1.0780
 2522SOL     OW 7564   1.116   1.865   2.048 -0.8824  0.2496  0.2728
 2522SOL    HW1 7565   1.160   1.820   1.976  0.2611  0.6386  0.6931
 2522SOL    HW2 7566   1.023   1.847   2.036 -0.4698 -2.4225  0.5846
 2523SOL     OW 7567   5.911   2.779   2.180  0.8659 -0.1853 -0.5933
 2523SOL    HW1 7568   5.900   2.765   2.274  0.1595  0.6817 -0.5334
 2523SOL    HW2 7569   5.881   2.698   2.140  1.3098 -0.6155 -0.0710
 2524SOL     OW 7570  -0.014   1.625   0.144 -0.3059  0.0666 -0.6437
 2524SOL    HW1 7571  -0.005   1.594   0.054 -0.3453  0.8442 -0.9197
 2524SOL    HW2 7572   0.067   1.597   0.188 -0.2128 -0.1668 -0.9665
 2525SOL     OW 7573   2.075   1.348   0.116 -0.0711  0.4296 -0.2222
 2525SOL    HW1 7574   2.033   1.273   0.073 -1.6418  0.6771  0.8047
 2525SOL    HW2 7575   2.021   1.423   0.090  0.4865  0.9503  0.1167
 2526SOL     OW 7576   3.716   0.979   0.387  0.2258  0.2516 -0.1714
 2526SOL    HW1 7577   3.678   1.035   0.319  1.7472 -0.1555 -1.4197
 2526SOL    HW2 7578   3.792   0.939   0.345  0.6948 -0.7198  1.5164
 2527SOL     OW 7579   5.440   2.103   2.605 -0.4045 -0.1501  0.4509
 2527SOL    HW1 7580   5.524   2.067   2.633  0.1248  2.3495  2.4516
 2527SOL    HW2 7581   5.393   2.119   2.687 -1.1644  2.1776 -0.3647
 2528SOL     OW 7582   4.990   2.610   5.409 -0.2951  0.0616 -0.7545
 2528SOL    HW1 7583   5.001   2.658   5.327 -0.6826 -0.2458 -0.9893
 2528SOL    HW2 7584   4.927   2.540   5.388 -0.4334  0.0118 -0.1850
 2529SOL     OW 7585   4.202   4.272   1.213  0.0202 -0.1196 -0.0582
 2529SOL    HW1 7586   4.214   4.294   1.121  0.2947  2.4099  0.5069
 2529SOL    HW2 7587   4.142   4.339   1.246 -0.6932 -1.4292  1.4430
 2530SOL     OW 7588   2.598   1.807   1.508 -0.2889 -0.0066  0.3704
 2530SOL    HW1 7589   2.505   1.797   1.492 -0.4778  1.3002  0.5622
 2530SOL    HW2 7590   2.607   1.803   1.603 -0.2445  0.5022  0.3932
 2531SOL     OW 7591   4.272   5.820   2.909  0.0691 -0.7196 -0.0413
 2531SOL    HW1 7592   4.368   5.821   2.916  0.1176  1.1459 -0.4957
 2531SOL    HW2 7593   4.254   5.854   2.821 -1.0280  0.2583  0.5431
 2532SOL     OW 7594   2.888   1.921   5.315 -0.1833 -0.1612 -0.5621
 2532SOL    HW1 7595   2.923   1.868   5.386  1.8394  0.8953 -0.7123
 2532SOL    HW2 7596   2.891   1.863   5.238  0.5053 -0.3477 -0.4002
 2533SOL     OW 7597   3.869   3.342   5.694  0.2412  0.7608 -0.1716
 2533SOL    HW1 7598   3.851   3.411   5.758 -0.1340  2.1316 -1.6846
 2533SOL    HW2 7599   3.959   3.315   5.713 -0.0224  0.7676  1.2284
 2534SOL     OW 7600   1.602   0.730   2.578  0.0404 -0.7055  0.2131
 2534SOL    HW1 7601   1.654   0.802   2.543  0.8806 -1.8210 -0.9363
 2534SOL    HW2 7602   1.513   0.746   2.546  0.8450 -1.9239 -3.0084
 2535SOL     OW 7603   4.283   2.172   1.089 -0.1766  0.1294 -0.2310
 2535SOL    HW1 7604   4.212   2.130   1.138  1.3892 -1.6196  0.6715
 2535SOL    HW2 7605   4.280   2.133   1.002 -1.2004  1.1668 -0.6930
 2536SOL     OW 7606   3.012   4.942   3.204  0.1081 -0.3952 -0.5670
 2536SOL    HW1 7607   3.014   4.854   3.166  1.0632 -1.3854  1.5498
 2536SOL    HW2 7608   3.099   4.954   3.242 -1.4170 -0.7647  3.6630
 2537SOL     OW 7609   1.784   2.606   0.082  0.1311  0.4036 -0.4040
 2537SOL    HW1 7610   1.852   2.671   0.063 -0.3489  0.8542 -0.6075
 2537SOL    HW2 7611   1.754   2.577  -0.004  0.4956 -0.2510 -0.3124
 2538SOL     OW 7612   3.301   5.822   0.110  0.8197  0.6859 -0.0979
 2538SOL    HW1 7613   3.275   5.832   0.019  0.3071 -0.6288 -0.1083
 2538SOL    HW2 7614   3.366   5.892   0.124  0.3635  1.3655 -1.2427
 2539SOL     OW 7615   3.561   5.187   0.224 -0.2919  0.1415  0.4351
 2539SOL    HW1 7616   3.527   5.099   0.204 -1.6469  0.3056  1.8457
 2539SOL    HW2 7617   3.517   5.244   0.160  0.5894 -0.1824 -0.4834
 2540SOL     OW 7618   2.050   5.065   2.706  0.6843  0.1462  0.4428
 2540SOL    HW1 7619   2.080   4.992   2.761 -0.0193  0.1422  0.8412
 2540SOL    HW2 7620   2.126   5.123   2.699  2.2976 -2.0152 -2.3878
 2541SOL     OW 7621   4.574   4.821   0.126 -0.4170  0.5862 -0.0129
 2541SOL    HW1 7622   4.635   4.888   0.094 -0.6114  0.8198  0.1024
 2541SOL    HW2 7623   4.579   4.829   0.222  0.5288 -0.4314  0.0470
 2542SOL     OW 7624   3.395   1.549   1.908  0.2313 -0.4537  0.5274
 2542SOL    HW1 7625   3.413   1.548   2.002  1.2793  0.0545  0.3477
 2542SOL    HW2 7626   3.367   1.639   1.890 -1.7225 -0.9803  0.6303
 2543SOL     OW 7627   4.625   2.302   1.510 -0.1435  0.1456 -0.7168
 2543SOL    HW1 7628   4.592   2.391   1.521  1.2325  0.9957 -2.8762
 2543SOL    HW2 7629   4.547   2.248   1.497 -0.9079  1.3386 -1.1838
 2544SOL     OW 7630   3.445   0.768   1.329 -0.4107  0.5241 -0.6999
 2544SOL    HW1 7631   3.516   0.807   1.381  0.5951 -0.8619 -0.9798
 2544SOL    HW2 7632   3.460   0.802   1.240 -0.1900  0.3576 -0.7266
 2545SOL     OW 7633   2.939   2.039   4.052  0.0563 -0.0351 -0.1084
 2545SOL    HW1 7634   2.865   2.018   3.994  0.6776 -2.4737 -0.1325
 2545SOL    HW2 7635   2.974   1.954   4.079  1.1487  1.0250  2.1521
 2546SOL     OW 7636   3.085   2.830   4.525  0.1433  0.6123  0.1392
 2546SOL    HW1 7637   3.098   2.789   4.610  1.5502  0.5993 -0.0564
 2546SOL    HW2 7638   3.083   2.924   4.543 -0.4975  0.5783  0.2807
 2547SOL     OW 7639   0.020   4.999   1.661 -0.8327 -0.4190 -0.8359
 2547SOL    HW1 7640   0.099   5.052   1.671  1.0149 -3.1258 -0.1853
 2547SOL    HW2 7641  -0.013   5.022   1.574  1.4314 -0.1578 -1.6858
 2548SOL     OW 7642   3.769   0.632   1.183 -0.0359  0.0956  0.6477
 2548SOL    HW1 7643   3.773   0.650   1.277  1.6756 -0.6278  0.7465
 2548SOL    HW2 7644   3.853   0.662   1.149 -0.3188 -0.3700 -0.5278
 2549SOL     OW 7645   1.511   3.555   3.401 -0.0923 -0.2721 -0.5751
 2549SOL    HW1 7646   1.425   3.556   3.442  0.8744 -0.5101  1.6487
 2549SOL    HW2 7647   1.529   3.647   3.381 -0.3275 -0.0509  0.1944
 2550SOL     OW 7648   2.459   5.822   2.743  0.1006 -0.4755  0.3654
 2550SOL    HW1 7649   2.519   5.766   2.695  1.0387  0.1206  0.8123
 2550SOL    HW2 7650   2.445   5.898   2.686  0.2247 -0.3447  0.5103
 2551SOL     OW 7651   3.205   1.272   2.740  0.1075 -0.0794 -0.2136
 2551SOL    HW1 7652   3.144   1.309   2.805  0.5743 -0.0923  0.2401
 2551SOL    HW2 7653   3.283   1.327   2.747  0.2121 -0.1669 -0.6719
 2552SOL     OW 7654   0.393   0.527   2.575  0.1467  0.5225 -0.3602
 2552SOL    HW1 7655   0.430   0.608   2.538  0.9370 -0.0919 -0.9627
 2552SOL    HW2 7656   0.444   0.457   2.533  1.9698 -0.2309  2.7814
 2553SOL     OW 7657   3.156   4.159   4.128  0.3874 -0.5945 -0.5324
 2553SOL    HW1 7658   3.134   4.067   4.143  1.3690 -0.7384  0.1269
 2553SOL    HW2 7659   3.249   4.165   4.149 -0.1343  1.0186  1.6465
 2554SOL     OW 7660   1.551   4.624   3.552 -0.2425 -0.0087 -0.1314
 2554SOL    HW1 7661   1.499   4.544   3.559 -0.2309  0.0455  0.7124
 2554SOL    HW2 7662   1.618   4.603   3.487  0.7279 -1.2469  1.1989
 2555SOL     OW 7663   4.138   0.977   2.970 -0.2999 -0.8256  0.1054
 2555SOL    HW1 7664   4.096   0.921   3.036 -0.8768  1.8357  2.2180
 2555SOL    HW2 7665   4.068   0.998   2.908  0.0102 -2.6159 -0.9030
 2556SOL     OW 7666   2.340   2.192   2.641  0.0152 -0.3480  0.2097
 2556SOL    HW1 7667   2.420   2.144   2.659  0.3043 -0.5686 -1.5415
 2556SOL    HW2 7668   2.368   2.283   2.633  0.3053 -0.5539 -1.4641
 2557SOL     OW 7669   2.866   1.907   2.221  0.2815 -0.0511  0.0333
 2557SOL    HW1 7670   2.880   1.841   2.289  0.3007  0.0122  0.0899
 2557SOL    HW2 7671   2.782   1.947   2.243  0.1951 -0.1632 -0.0887
 2558SOL     OW 7672   1.178   5.478   3.735  0.0271 -0.1539 -0.1890
 2558SOL    HW1 7673   1.114   5.410   3.716 -0.1830 -0.3058  0.9804
 2558SOL    HW2 7674   1.138   5.558   3.703  0.3804 -0.5820 -1.8104
 2559SOL     OW 7675   0.308   1.345   3.379 -0.1735  0.1392 -0.4888
 2559SOL    HW1 7676   0.217   1.342   3.409  0.2161 -1.9453  0.6186
 2559SOL    HW2 7677   0.358   1.369   3.457  0.2838  0.8044 -0.9802
 2560SOL     OW 7678   2.226   1.192   2.761  0.1978  0.2724 -0.1603
 2560SOL    HW1 7679   2.296   1.129   2.776 -0.1391 -0.0539  0.0983
 2560SOL    HW2 7680   2.152   1.158   2.813 -0.6789 -0.2872 -1.7163
 2561SOL     OW 7681   3.303   2.299   3.401  0.0570 -0.2123  1.0820
 2561SOL    HW1 7682   3.363   2.296   3.326 -0.5042  1.2178  0.5385
 2561SOL    HW2 7683   3.348   2.354   3.465 -0.4440  0.4353  0.8805
 2562SOL     OW 7684   4.256   4.186   4.685  0.5049  0.3312 -0.0617
 2562SOL    HW1 7685   4.307   4.117   4.645 -0.3711 -0.7839  0.6797
 2562SOL    HW2 7686   4.321   4.249   4.717  1.3294 -0.3189 -0.4232
 2563SOL     OW 7687   0.281   0.402   5.884  0.7318  0.2270 -0.1170
 2563SOL    HW1 7688   0.311   0.312   5.894  1.0893  0.5614  2.3805
 2563SOL    HW2 7689   0.185   0.396   5.889  0.7841  0.0426  0.7413
 2564SOL     OW 7690   0.460   0.731   4.245  0.1390  0.4575 -0.5479
 2564SOL    HW1 7691   0.472   0.639   4.224  0.7731  0.9065 -2.2938
 2564SOL    HW2 7692   0.438   0.772   4.161  0.9235  2.0623 -0.0045
 2565SOL     OW 7693   1.863   5.511   4.622  0.5406  0.0328 -0.0164
 2565SOL    HW1 7694   1.807   5.451   4.671 -0.4830 -0.0930 -1.2688
 2565SOL    HW2 7695   1.946   5.513   4.670 -0.3174 -0.2906  1.5189
 2566SOL     OW 7696   0.551   0.891   2.636  0.3670 -0.3318 -0.3986
 2566SOL    HW1 7697   0.562   0.831   2.562  1.3807 -1.8445  0.9071
 2566SOL    HW2 7698   0.607   0.855   2.704 -0.1056  1.3373  0.9358
 2567SOL     OW 7699   0.468   2.002   0.551 -0.4140  0.4970 -0.0597
 2567SOL    HW1 7700   0.414   2.013   0.473 -2.0065 -2.0641  0.5313
 2567SOL    HW2 7701   0.409   2.023   0.624  0.2457  0.3462  0.5344
 2568SOL     OW 7702   0.132   2.248   2.432 -0.4610  0.6691  0.9360
 2568SOL    HW1 7703   0.128   2.267   2.526 -0.8886  1.1315  0.8256
 2568SOL    HW2 7704   0.080   2.317   2.392 -2.7547 -1.1810  0.5600
 2569SOL     OW 7705   1.026   3.271   2.696 -0.0317 -0.3757 -0.3860
 2569SOL    HW1 7706   1.069   3.349   2.661 -0.3204 -0.9055 -2.0101
 2569SOL    HW2 7707   1.098   3.213   2.721  0.1874  0.3942  0.8950
 2570SOL     OW 7708   1.827   1.225   2.401 -0.1869 -0.5167 -0.0386
 2570SOL    HW1 7709   1.813   1.319   2.415 -1.3946 -0.7868  0.7046
 2570SOL    HW2 7710   1.797   1.209   2.312  1.6872  0.0937 -0.8341
 2571SOL     OW 7711   3.845   2.389   2.840 -0.3461  0.2898 -0.2356
 2571SOL    HW1 7712   3.760   2.346   2.830  0.0844 -0.6295 -0.0776
 2571SOL    HW2 7713   3.879   2.355   2.922  1.2916 -1.3848 -1.5167
 2572SOL     OW 7714   3.092   5.675   2.037  0.1155 -0.4056  0.1600
 2572SOL    HW1 7715   3.085   5.579   2.041  2.7284 -0.8042 -2.0404
 2572SOL    HW2 7716   3.119   5.693   1.947 -1.4506  2.5683  0.1791
 2573SOL     OW 7717   1.970   3.217   3.028  0.0128 -0.0259  0.0176
 2573SOL    HW1 7718   1.942   3.157   3.098 -2.1643 -0.0727 -0.8085
 2573SOL    HW2 7719   1.930   3.301   3.051  1.6511  0.7025  0.2838
 2574SOL     OW 7720   3.488   0.257   4.004 -0.3343 -0.0516  0.2372
 2574SOL    HW1 7721   3.512   0.225   4.091  0.1716 -0.2655  0.0226
 2574SOL    HW2 7722   3.416   0.318   4.020  0.2018  0.4292  0.8762
 2575SOL     OW 7723   4.238   4.958   3.099 -0.5859 -0.2537  0.2425
 2575SOL    HW1 7724   4.289   5.030   3.137 -0.4803 -0.3561  0.2946
 2575SOL    HW2 7725   4.159   5.000   3.066  0.2772  0.1831 -1.3676
 2576SOL     OW 7726   3.204   1.207   5.535 -0.4818  0.6691 -0.0837
 2576SOL    HW1 7727   3.224   1.282   5.591  0.9902  0.5208 -0.3506
 2576SOL    HW2 7728   3.154   1.148   5.590 -1.3122  1.6627  0.2508
 2577SOL     OW 7729   1.076   0.122   0.730  0.0073 -0.5296  0.2024
 2577SOL    HW1 7730   1.136   0.069   0.677  0.8423 -0.5983  1.2013
 2577SOL    HW2 7731   1.055   0.197   0.675  1.3831 -0.2677  0.0152
 2578SOL     OW 7732   2.450   4.438   2.879  0.1896 -0.0891 -0.5650
 2578SOL    HW1 7733   2.545   4.427   2.877  0.2103  0.1876 -2.0503
 2578SOL    HW2 7734   2.415   4.351   2.859  0.1817  0.1660 -1.7493
 2579SOL     OW 7735   2.095   1.573   0.299 -1.3861 -0.1994 -0.6328
 2579SOL    HW1 7736   2.099   1.627   0.220  1.7630  0.0146 -0.4370
 2579SOL    HW2 7737   2.093   1.483   0.266 -0.4896 -0.0990 -0.9786
 2580SOL     OW 7738   0.281   5.381   1.769  0.2846 -0.3140  0.4083
 2580SOL    HW1 7739   0.277   5.403   1.676  1.7574 -0.8174  0.1904
 2580SOL    HW2 7740   0.334   5.451   1.808  3.2713 -2.1973  0.0675
 2581SOL     OW 7741   4.927   0.729   3.254  0.3926 -0.1782  0.3793
 2581SOL    HW1 7742   4.928   0.815   3.210  2.6129  0.0822  0.8409
 2581SOL    HW2 7743   5.017   0.697   3.246 -0.1860 -2.0687  1.0321
 2582SOL     OW 7744   2.586   4.804   5.555  0.1682 -0.1284 -0.5068
 2582SOL    HW1 7745   2.666   4.855   5.540  0.4932 -0.3736  0.3254
 2582SOL    HW2 7746   2.603   4.756   5.636 -0.9830  0.1409 -0.0811
 2583SOL     OW 7747   2.348   5.099   1.904 -1.0367  0.3692 -0.7470
 2583SOL    HW1 7748   2.254   5.081   1.911 -0.8516 -0.4970 -0.4191
 2583SOL    HW2 7749   2.353   5.195   1.895 -1.7947  0.7966  2.3761
 2584SOL     OW 7750   3.937   0.271   5.548  0.5593 -0.0292  0.4181
 2584SOL    HW1 7751   3.925   0.364   5.568 -2.2429 -0.2825  0.2707
 2584SOL    HW2 7752   3.941   0.267   5.453 -2.5805 -0.2203  0.1672
 2585SOL     OW 7753   0.665   0.091   2.438  0.0856  0.0480 -0.2682
 2585SOL    HW1 7754   0.669   0.005   2.397  0.6940 -0.3755  0.6368
 2585SOL    HW2 7755   0.756   0.122   2.437 -0.2674  1.0993 -1.4316
 2586SOL     OW 7756   3.796   1.704   1.100 -0.4921  0.2369  0.3565
 2586SOL    HW1 7757   3.761   1.782   1.059  1.6109 -0.1877 -2.5703
 2586SOL    HW2 7758   3.719   1.656   1.130 -2.0174  1.8672 -0.7471
 2587SOL     OW 7759   3.087   0.038   3.621  0.0297 -0.1560 -0.6762
 2587SOL    HW1 7760   3.072  -0.056   3.632 -0.2227 -0.0471 -0.0596
 2587SOL    HW2 7761   3.018   0.067   3.562  0.3166 -0.4149 -1.1531
 2588SOL     OW 7762   3.573   1.890   2.007 -0.4435  0.4522 -0.2167
 2588SOL    HW1 7763   3.569   1.811   1.954  0.7971  0.3430 -0.1753
 2588SOL    HW2 7764   3.545   1.960   1.947 -1.5840 -0.0011 -0.2392
 2589SOL     OW 7765   1.364   0.294   4.247 -0.5340  0.0478 -0.3675
 2589SOL    HW1 7766   1.423   0.364   4.277 -0.0539 -0.3276 -0.4150
 2589SOL    HW2 7767   1.422   0.232   4.202 -1.3042  0.9089 -2.7126
 2590SOL     OW 7768   3.411   2.242   1.152  0.5950  0.6623  0.2393
 2590SOL    HW1 7769   3.405   2.147   1.147  1.3296  0.6079  0.3546
 2590SOL    HW2 7770   3.447   2.270   1.068 -1.9829  1.0800 -0.8345
 2591SOL     OW 7771   3.394   2.933   4.933  0.3305  0.0226 -0.2367
 2591SOL    HW1 7772   3.308   2.973   4.921  0.5610  1.0677  1.2330
 2591SOL    HW2 7773   3.378   2.861   4.994  0.1261 -1.3840 -1.8935
 2592SOL     OW 7774   4.823   4.210   1.695 -0.5452  0.0658  0.0043
 2592SOL    HW1 7775   4.795   4.174   1.611  0.7161 -0.4862 -0.2038
 2592SOL    HW2 7776   4.864   4.136   1.740  1.2544  0.9861 -0.0418
 2593SOL     OW 7777   5.445   3.169   4.001 -0.2627 -0.2522  0.3717
 2593SOL    HW1 7778   5.538   3.153   4.017  0.1838  1.3479 -0.3696
 2593SOL    HW2 7779   5.406   3.173   4.088  0.1097 -2.1257  0.6648
 2594SOL     OW 7780   1.671   1.288   0.467  0.7927  0.1373 -0.2231
 2594SOL    HW1 7781   1.737   1.239   0.419  0.1732  0.9891 -2.0127
 2594SOL    HW2 7782   1.662   1.371   0.420  1.6959  2.0095  2.5872
 2595SOL     OW 7783   0.855   5.808   5.392 -0.3494  0.4062  0.3757
 2595SOL    HW1 7784   0.889   5.747   5.326 -1.4770 -1.2251  1.2335
 2595SOL    HW2 7785   0.928   5.867   5.410  0.2017  0.4621 -1.8114
 2596SOL     OW 7786   4.505   1.947   5.953 -0.4976 -0.0656  0.1758
 2596SOL    HW1 7787   4.529   1.879   6.016 -2.1290  0.3343  1.2772
 2596SOL    HW2 7788   4.519   2.029   6.000 -1.9544  0.2345  0.1364
 2597SOL     OW 7789   1.919   5.548   2.411 -0.3296 -0.3379  0.4002
 2597SOL    HW1 7790   1.899   5.642   2.412  1.9427  0.1945  0.4227
 2597SOL    HW2 7791   1.867   5.514   2.338  0.2745  1.3139 -0.8610
 2598SOL     OW 7792   5.214   5.612   4.928 -0.3098  0.3760  0.3048
 2598SOL    HW1 7793   5.282   5.658   4.879 -0.2290 -1.1131 -1.0578
 2598SOL    HW2 7794   5.226   5.641   5.018  1.6528  0.7016 -0.0179
 2599SOL     OW 7795   2.617   5.624   5.666 -0.3200 -0.1931 -0.4514
 2599SOL    HW1 7796   2.711   5.618   5.683 -0.6215 -1.5314  0.9747
 2599SOL    HW2 7797   2.598   5.554   5.604 -0.5639 -0.7577  0.2483
 2600SOL     OW 7798   4.360   5.213   1.294 -0.0781  0.2768 -0.0577
 2600SOL    HW1 7799   4.331   5.282   1.234 -1.4177  1.2413  1.6303
 2600SOL    HW2 7800   4.349   5.250   1.381  2.7374 -0.7231  0.8385
 2601SOL     OW 7801   1.516   1.144   5.903 -0.6328  0.4745 -0.3578
 2601SOL    HW1 7802   1.574   1.096   5.961 -0.4993  0.8355 -0.1876
 2601SOL    HW2 7803   1.432   1.098   5.908 -0.7557  0.7815  0.4881
 2602SOL     OW 7804   3.690   5.560   0.802  0.2925  0.0294 -0.1401
 2602SOL    HW1 7805   3.637   5.639   0.800  0.9696  0.4870 -0.5605
 2602SOL    HW2 7806   3.693   5.532   0.710  0.4684 -0.2039 -0.0625
 2603SOL     OW 7807   3.977   4.684   3.679  0.0795  0.3197  0.8428
 2603SOL    HW1 7808   3.929   4.686   3.763  1.7114  0.2031  1.8190
 2603SOL    HW2 7809   3.996   4.776   3.661 -0.2250  0.3402  0.6181
 2604SOL     OW 7810   3.081   2.727   4.851  0.1490  0.0198 -0.2028
 2604SOL    HW1 7811   3.074   2.650   4.794  0.3589  0.6723 -1.1366
 2604SOL    HW2 7812   3.027   2.705   4.927  0.7522 -1.3242 -0.1328
 2605SOL     OW 7813   1.804   3.782   4.152  0.2077  0.5090  0.1391
 2605SOL    HW1 7814   1.750   3.861   4.158  0.1631  0.4785  0.1423
 2605SOL    HW2 7815   1.831   3.779   4.060 -0.7585 -0.1056 -0.1458
 2606SOL     OW 7816   3.992   1.209   4.030  0.2021 -0.0516  0.1309
 2606SOL    HW1 7817   4.056   1.208   3.959  0.9546 -1.6251  0.7901
 2606SOL    HW2 7818   3.966   1.118   4.040 -0.1841  0.1974  1.6289
 2607SOL     OW 7819   0.367   1.013   1.004 -0.2594  0.0153  0.3549
 2607SOL    HW1 7820   0.416   0.969   1.074 -1.4115 -0.8519  0.6512
 2607SOL    HW2 7821   0.434   1.058   0.952  0.7462 -0.3804  1.2669
 2608SOL     OW 7822   3.789   1.983   2.621  0.4086  0.3107  0.0291
 2608SOL    HW1 7823   3.861   2.007   2.680  1.6351 -2.7000 -0.1086
 2608SOL    HW2 7824   3.714   1.969   2.680  1.1470 -0.8903  0.7175
 2609SOL     OW 7825   3.742   3.218   4.137 -0.5792 -0.2745  0.8109
 2609SOL    HW1 7826   3.763   3.302   4.096  1.6745 -0.7970  0.7504
 2609SOL    HW2 7827   3.754   3.154   4.067 -2.0354 -0.7129  0.9277
 2610SOL     OW 7828   5.407   0.643   5.965  0.0485  0.1805  0.8322
 2610SOL    HW1 7829   5.445   0.718   6.012  1.1554 -0.1587  0.5115
 2610SOL    HW2 7830   5.479   0.609   5.912 -0.9305 -0.0374 -0.3864
 2611SOL     OW 7831   4.567   1.412   0.906  0.1183  0.1069  0.3025
 2611SOL    HW1 7832   4.640   1.453   0.859 -0.2098  0.1376 -0.1782
 2611SOL    HW2 7833   4.489   1.448   0.866 -0.1799 -1.1075 -0.2324
 2612SOL     OW 7834   3.234   0.372   3.963  0.3967 -0.7886 -0.2415
 2612SOL    HW1 7835   3.216   0.465   3.949 -0.3184 -1.0586 -1.2338
 2612SOL    HW2 7836   3.252   0.339   3.875 -0.0800 -1.7431  0.0198
 2613SOL     OW 7837   0.113   4.735   4.769 -0.0070  0.0560 -0.1765
 2613SOL    HW1 7838   0.157   4.694   4.695 -0.1646 -1.0865  0.3269
 2613SOL    HW2 7839   0.168   4.810   4.792 -0.4476  0.9828 -2.0007
 2614SOL     OW 7840   3.607   0.957   5.570  0.1259 -0.6349 -0.0147
 2614SOL    HW1 7841   3.566   1.035   5.532  1.8663  0.8149  0.9399
 2614SOL    HW2 7842   3.562   0.884   5.529 -2.2843  0.8495 -0.2106
 2615SOL     OW 7843   2.996   2.550   2.370  0.3322 -0.1195  0.8120
 2615SOL    HW1 7844   2.957   2.471   2.331  0.2778  0.2053  0.1942
 2615SOL    HW2 7845   3.087   2.549   2.341 -0.1044  0.9768 -0.7184
 2616SOL     OW 7846   2.085   5.109   0.541 -0.5605  0.2935  0.3888
 2616SOL    HW1 7847   2.133   5.047   0.596  0.3635  1.6424  1.1595
 2616SOL    HW2 7848   2.102   5.080   0.451 -0.3818 -0.7188  0.7362
 2617SOL     OW 7849   3.658   1.754   2.535  0.2679 -0.4109 -0.0453
 2617SOL    HW1 7850   3.614   1.790   2.459 -1.0557 -2.0046 -0.0828
 2617SOL    HW2 7851   3.722   1.821   2.560  1.6617 -0.3567 -3.2888
 2618SOL     OW 7852   3.774   5.266   5.021 -0.0211 -0.3253 -0.4214
 2618SOL    HW1 7853   3.685   5.237   5.001 -0.0893 -0.3728 -0.0514
 2618SOL    HW2 7854   3.783   5.349   4.974 -1.0297  0.7988  1.2440
 2619SOL     OW 7855   0.314   1.200   5.122 -0.3078 -0.1083  0.0955
 2619SOL    HW1 7856   0.292   1.211   5.029  0.7930 -1.9626 -0.4427
 2619SOL    HW2 7857   0.246   1.248   5.169 -1.2845  0.2989 -1.6530
 2620SOL     OW 7858   0.488   0.157   0.985 -0.1309  0.4586  0.5154
 2620SOL    HW1 7859   0.397   0.145   1.012 -0.0309 -1.1727  0.2396
 2620SOL    HW2 7860   0.538   0.147   1.066 -0.1427  0.5555  0.5349
 2621SOL     OW 7861   4.248   1.471   3.259  0.4556 -0.6075 -0.5384
 2621SOL    HW1 7862   4.251   1.375   3.267 -0.0793 -0.5651  0.2828
 2621SOL    HW2 7863   4.233   1.502   3.348 -0.5252  0.1845 -0.9573
 2622SOL     OW 7864   2.967   1.107   2.593  0.1875 -0.1904 -0.1364
 2622SOL    HW1 7865   2.960   1.022   2.548 -1.8895  0.0744 -0.3924
 2622SOL    HW2 7866   3.047   1.099   2.644  0.1233 -2.2731 -0.2389
 2623SOL     OW 7867   2.596   0.600   3.193  0.3190  0.6301  0.1854
 2623SOL    HW1 7868   2.540   0.608   3.270  1.7699  1.5297  1.2034
 2623SOL    HW2 7869   2.543   0.635   3.121 -1.4517 -1.1803  0.5211
 2624SOL     OW 7870   4.629   4.852   3.735  0.3473 -0.2448  0.2897
 2624SOL    HW1 7871   4.646   4.911   3.662  0.3299 -1.1309 -0.4472
 2624SOL    HW2 7872   4.713   4.843   3.779  0.1788  0.9587  0.9184
 2625SOL     OW 7873   3.508   5.629   0.134 -0.5967 -0.2675  0.7825
 2625SOL    HW1 7874   3.512   5.612   0.040  2.2216  0.9288  0.5735
 2625SOL    HW2 7875   3.447   5.703   0.143  0.4041  0.7386 -0.3533
 2626SOL     OW 7876   2.320   1.580   5.870  0.4583 -0.7802 -0.1244
 2626SOL    HW1 7877   2.366   1.663   5.886 -1.2638  0.2259 -0.1692
 2626SOL    HW2 7878   2.232   1.595   5.904 -0.8030 -1.5304 -2.7779
 2627SOL     OW 7879   1.291   1.382   0.560 -0.0630 -0.0331  0.2961
 2627SOL    HW1 7880   1.347   1.451   0.595  0.3321 -1.0032  1.6879
 2627SOL    HW2 7881   1.287   1.317   0.630 -3.0436  0.0363  0.3078
 2628SOL     OW 7882   4.011   2.047   2.793  0.0798 -0.6961 -0.0249
 2628SOL    HW1 7883   4.066   2.119   2.762 -2.2570  0.4209 -1.9368
 2628SOL    HW2 7884   3.971   2.081   2.873  0.3012 -0.5320  0.0173
 2629SOL     OW 7885   4.542   0.890   0.183  0.2429 -0.0718  1.0603
 2629SOL    HW1 7886   4.524   0.810   0.134  1.4297  0.5066 -0.4282
 2629SOL    HW2 7887   4.457   0.918   0.216 -0.9318  0.2105 -1.8663
 2630SOL     OW 7888   2.301   5.416   4.471  0.1768 -0.0847  0.0061
 2630SOL    HW1 7889   2.231   5.353   4.453 -0.3935  0.2988  0.7901
 2630SOL    HW2 7890   2.382   5.369   4.451 -0.3020 -0.4853 -1.0610
 2631SOL     OW 7891   5.410   0.345   4.013  0.3389 -0.4363  0.2571
 2631SOL    HW1 7892   5.355   0.293   4.071 -0.3324 -1.3076 -1.0991
 2631SOL    HW2 7893   5.476   0.284   3.980  1.0696  0.1868  0.5264
 2632SOL     OW 7894   4.869   3.542   3.256 -0.2570  0.4115  0.0870
 2632SOL    HW1 7895   4.937   3.485   3.221  1.0348  1.6949  0.3823
 2632SOL    HW2 7896   4.870   3.619   3.199 -0.1554  1.2499  1.1788
 2633SOL     OW 7897   3.341   5.823   0.491  0.1233  0.2698 -0.8169
 2633SOL    HW1 7898   3.247   5.823   0.477  0.0741  0.6172 -0.4850
 2633SOL    HW2 7899   3.372   5.905   0.453  0.0152  1.1236  0.8724
 2634SOL     OW 7900   1.366   5.281   5.841 -0.2214 -0.2874 -0.2316
 2634SOL    HW1 7901   1.320   5.350   5.794  0.2068 -1.7136 -2.9399
 2634SOL    HW2 7902   1.309   5.204   5.832  0.3329 -0.8353  0.7792
 2635SOL     OW 7903   2.541   3.221   4.341  0.4198 -0.4777  0.0736
 2635SOL    HW1 7904   2.589   3.266   4.410  1.7719 -0.3426 -0.9258
 2635SOL    HW2 7905   2.598   3.151   4.312 -0.9692 -1.8132  0.4406
 2636SOL     OW 7906   3.451   1.061   3.856 -0.0059  0.0394  0.3839
 2636SOL    HW1 7907   3.533   1.016   3.875  0.2760 -0.1228 -1.0766
 2636SOL    HW2 7908   3.419   1.089   3.941  0.3908 -1.9090  1.2330
 2637SOL     OW 7909   5.908   0.899   4.320  0.8914  0.2677  0.0657
 2637SOL    HW1 7910   6.003   0.899   4.331  0.8000 -0.4711  1.0227
 2637SOL    HW2 7911   5.892   0.845   4.243  1.1262 -2.0669  1.5623
 2638SOL     OW 7912   5.123   5.631   4.627  0.0248  0.7386  0.1555
 2638SOL    HW1 7913   5.105   5.594   4.713  1.0372 -0.3968 -0.0908
 2638SOL    HW2 7914   5.044   5.613   4.576  0.3629 -0.8419  0.1402
 2639SOL     OW 7915   1.505   1.765   4.151  0.0727 -0.2544 -0.1320
 2639SOL    HW1 7916   1.565   1.839   4.150  0.1534 -0.1660  2.7595
 2639SOL    HW2 7917   1.554   1.692   4.114  1.0525  0.4306 -0.1946
 2640SOL     OW 7918   0.882   0.556   2.848 -0.0487  0.5822 -0.3628
 2640SOL    HW1 7919   0.964   0.548   2.896 -0.7393  2.5730  1.2909
 2640SOL    HW2 7920   0.819   0.504   2.899 -0.1730  0.3576 -0.7402
 2641SOL     OW 7921   1.080   4.140   1.356 -0.3167 -0.3226  0.3154
 2641SOL    HW1 7922   1.103   4.109   1.444  0.7457  1.4600  0.7032
 2641SOL    HW2 7923   1.056   4.232   1.368 -1.8979 -0.5133 -1.0286
 2642SOL     OW 7924   3.786   2.682   3.009  0.1599  0.0221  0.0369
 2642SOL    HW1 7925   3.851   2.659   2.942  1.2284  0.8267  0.7584
 2642SOL    HW2 7926   3.805   2.623   3.082  0.4114  0.5579  0.4222
 2643SOL     OW 7927   4.034   1.588   2.873  0.3316  0.6656  0.0218
 2643SOL    HW1 7928   4.088   1.569   2.950  0.9083 -0.8232 -0.6990
 2643SOL    HW2 7929   4.078   1.662   2.831 -0.4268  2.0049  1.4964
 2644SOL     OW 7930   5.329   1.634   3.144 -0.4764 -0.1537  0.3720
 2644SOL    HW1 7931   5.424   1.634   3.131 -0.2360  2.1112  1.7004
 2644SOL    HW2 7932   5.293   1.664   3.061 -0.1112 -1.4178 -0.2778
 2645SOL     OW 7933   4.036   2.853   0.479 -0.6212 -0.2516  0.1382
 2645SOL    HW1 7934   3.942   2.852   0.496 -0.8754 -1.9694 -1.0777
 2645SOL    HW2 7935   4.057   2.763   0.455  0.8919  0.5271 -1.7814
 2646SOL     OW 7936   2.813   5.766   5.372  0.0084  0.5704 -0.6682
 2646SOL    HW1 7937   2.816   5.729   5.461  2.9568  1.8365 -0.1006
 2646SOL    HW2 7938   2.898   5.744   5.335 -1.6928 -1.2529 -3.8589
 2647SOL     OW 7939   1.118   4.590   2.944 -0.4215  0.3344 -0.1853
 2647SOL    HW1 7940   1.131   4.504   2.985  1.3103  0.6530  0.0548
 2647SOL    HW2 7941   1.038   4.581   2.893 -2.0137 -0.4857  2.2553
 2648SOL     OW 7942   2.726   0.352   3.478  0.4825  0.1007  0.6827
 2648SOL    HW1 7943   2.768   0.429   3.441 -0.3150 -0.9129 -2.7654
 2648SOL    HW2 7944   2.635   0.378   3.494  0.7482  0.4559  1.6271
 2649SOL     OW 7945   4.503   3.458   4.945  0.2113  0.0376  0.2996
 2649SOL    HW1 7946   4.452   3.387   4.984  0.1288 -0.4555 -0.6652
 2649SOL    HW2 7947   4.548   3.499   5.018  0.3386 -1.0743  0.8675
 2650SOL     OW 7948   3.173   0.782   4.162  0.4107 -0.7546 -0.1810
 2650SOL    HW1 7949   3.258   0.741   4.177  0.3085 -0.4603  1.4412
 2650SOL    HW2 7950   3.186   0.874   4.186 -0.1779 -0.5547 -0.6207
 2651SOL     OW 7951   1.674   1.591   4.027  0.3771 -0.5529 -0.4604
 2651SOL    HW1 7952   1.751   1.600   3.971  3.4495  0.1283  3.3892
 2651SOL    HW2 7953   1.667   1.498   4.045 -0.5505 -0.7599 -1.7612
 2652SOL     OW 7954   3.989   5.620   0.236 -0.2452 -0.1156 -0.4962
 2652SOL    HW1 7955   4.011   5.613   0.329  0.7629  1.2172 -0.6101
 2652SOL    HW2 7956   3.894   5.609   0.234 -0.1176 -1.8046  0.4861
 2653SOL     OW 7957   2.283   0.512   3.980 -0.3366  0.3135  0.7133
 2653SOL    HW1 7958   2.314   0.602   3.976  0.7377 -0.0625 -0.6742
 2653SOL    HW2 7959   2.364   0.460   3.986 -0.7705 -0.6191 -0.8163
 2654SOL     OW 7960   3.090   0.123   4.628  0.3160 -0.0302 -0.0199
 2654SOL    HW1 7961   3.083   0.218   4.631  0.9238  0.0922 -1.6045
 2654SOL    HW2 7962   3.004   0.091   4.657  0.2703  0.9623  1.0151
 2655SOL     OW 7963   2.619   4.609   0.715  0.1220 -0.7044 -0.1474
 2655SOL    HW1 7964   2.602   4.648   0.629  1.6130  0.8476  0.2057
 2655SOL    HW2 7965   2.687   4.543   0.699  2.3628  1.3782  0.1097
 2656SOL     OW 7966   3.905   1.533   4.797 -0.3999 -0.0470  0.0836
 2656SOL    HW1 7967   3.864   1.511   4.713  2.5206  1.3707 -1.8498
 2656SOL    HW2 7968   3.955   1.455   4.820 -0.4051 -0.0766 -0.0052
 2657SOL     OW 7969   4.322   4.249   3.448  0.1264  0.1065 -0.1176
 2657SOL    HW1 7970   4.292   4.339   3.434 -0.0102  0.1610  0.4820
 2657SOL    HW2 7971   4.319   4.238   3.543 -1.2057 -0.9931 -0.2653
 2658SOL     OW 7972   1.614   1.570   4.803 -0.2943 -0.4976 -0.1120
 2658SOL    HW1 7973   1.623   1.642   4.740  0.1206  1.0283  1.5936
 2658SOL    HW2 7974   1.521   1.566   4.823 -0.1659  0.4700  0.7493
 2659SOL     OW 7975   3.824   0.041   5.803 -0.8809  0.0061  0.0435
 2659SOL    HW1 7976   3.915   0.043   5.833 -0.8458  0.9670 -0.0921
 2659SOL    HW2 7977   3.791  -0.044   5.830  0.1818 -0.5099 -0.2541
 2660SOL     OW 7978   2.896   5.008   4.264 -0.1355  0.3343  0.0923
 2660SOL    HW1 7979   2.845   4.999   4.345 -0.3972  0.9457 -0.0062
 2660SOL    HW2 7980   2.874   4.930   4.213  0.9511 -0.6922  1.1070
 2661SOL     OW 7981   4.095   5.455   4.763 -0.0281 -0.0189 -0.2222
 2661SOL    HW1 7982   4.025   5.400   4.729 -0.6849  0.4967  0.2938
 2661SOL    HW2 7983   4.111   5.424   4.852 -0.4318  0.6391  0.0887
 2662SOL     OW 7984   3.955   3.941   5.031  0.5040  0.0504  0.9676
 2662SOL    HW1 7985   4.047   3.964   5.029  0.4895  0.0818  0.2274
 2662SOL    HW2 7986   3.954   3.845   5.039  0.5893  0.0909  1.4989
 2663SOL     OW 7987   3.182   0.169   4.995 -0.2824  0.0491 -0.2560
 2663SOL    HW1 7988   3.117   0.236   4.973  0.6260  0.7401 -0.9405
 2663SOL    HW2 7989   3.188   0.171   5.090  0.0461  1.2782 -0.2837
 2664SOL     OW 7990   5.069   1.227   3.840  0.2574 -0.2566  0.0485
 2664SOL    HW1 7991   4.981   1.196   3.863 -0.7424  0.9124 -1.9030
 2664SOL    HW2 7992   5.116   1.147   3.815 -1.0291 -0.7076 -1.1326
 2665SOL     OW 7993   3.762   2.034   4.850 -0.1721  0.1212  0.2196
 2665SOL    HW1 7994   3.781   1.943   4.874 -0.0664  0.4158  1.3093
 2665SOL    HW2 7995   3.838   2.060   4.797  0.9323  0.2688  1.8212
 2666SOL     OW 7996   0.111   0.592   5.655  0.5716  0.5704  0.1975
 2666SOL    HW1 7997   0.112   0.518   5.715  1.0645  1.4179  1.2685
 2666SOL    HW2 7998   0.049   0.567   5.586  3.8277 -2.7399 -1.9439
 2667SOL     OW 7999   1.196   5.171   0.175  0.1891 -0.8071 -0.1781
 2667SOL    HW1 8000   1.284   5.209   0.170 -1.0773  2.2149 -2.0208
 2667SOL    HW2 8001   1.146   5.235   0.225 -1.0621 -2.4273  0.7460
 2668SOL     OW 8002   1.242   5.673   3.290 -0.0076 -0.1842  0.1984
 2668SOL    HW1 8003   1.310   5.618   3.251  1.6116 -0.9297  3.7172
 2668SOL    HW2 8004   1.179   5.611   3.326  1.9036 -0.0978  4.3235
 2669SOL     OW 8005   4.183   1.126   3.847  0.1369 -0.6331 -0.0784
 2669SOL    HW1 8006   4.248   1.100   3.912 -1.2710  0.1155  1.6876
 2669SOL    HW2 8007   4.226   1.108   3.763  2.6603 -0.0830  0.9990
 2670SOL     OW 8008   3.615   1.130   3.489  0.0229  0.0168 -0.0201
 2670SOL    HW1 8009   3.633   1.192   3.418  0.6670 -0.1016  0.0365
 2670SOL    HW2 8010   3.692   1.136   3.546 -0.7517  0.5658  1.0066
 2671SOL     OW 8011   0.989   0.270   3.214  0.2348 -0.1424  0.2263
 2671SOL    HW1 8012   0.943   0.238   3.291  0.5104  1.1711  0.9779
 2671SOL    HW2 8013   0.947   0.355   3.195  0.0932 -0.4906 -1.1430
 2672SOL     OW 8014   4.888   3.126   4.481 -0.1292 -0.0164  0.3743
 2672SOL    HW1 8015   4.825   3.154   4.547 -1.8506 -2.0066 -0.3286
 2672SOL    HW2 8016   4.965   3.099   4.530 -0.9785 -0.4444  1.4902
 2673SOL     OW 8017   0.963   3.263   4.238 -0.0943 -0.2897  0.1723
 2673SOL    HW1 8018   0.883   3.290   4.194 -0.5454 -1.6455  0.1291
 2673SOL    HW2 8019   0.937   3.244   4.328  0.4611  0.6155  0.5395
 2674SOL     OW 8020   4.488   0.268   3.472 -0.3416  0.0924 -1.0645
 2674SOL    HW1 8021   4.440   0.189   3.498  0.3127 -0.5886 -1.8845
 2674SOL    HW2 8022   4.563   0.235   3.422  0.5366  1.1801 -0.4967
 2675SOL     OW 8023   1.870   0.367   3.530  1.0594  0.0805  0.0350
 2675SOL    HW1 8024   1.818   0.353   3.610  1.0034 -0.6656 -0.1201
 2675SOL    HW2 8025   1.948   0.313   3.543  0.1489 -1.6375 -1.2261
 2676SOL     OW 8026   4.801   5.855   2.985 -0.1403 -0.1541  0.3583
 2676SOL    HW1 8027   4.775   5.944   3.009 -0.5515  0.1115 -0.9880
 2676SOL    HW2 8028   4.813   5.810   3.069  0.0112  1.1420  1.0581
 2677SOL     OW 8029   4.521   5.623   5.088  0.1695  0.3519 -0.1737
 2677SOL    HW1 8030   4.570   5.691   5.041 -0.6808  1.2711  0.2415
 2677SOL    HW2 8031   4.432   5.630   5.053 -0.3879  0.7851  1.2504
 2678SOL     OW 8032   3.030   5.394   5.221 -0.0460 -0.4195  0.4601
 2678SOL    HW1 8033   2.955   5.438   5.181 -0.2817 -0.8884  0.3865
 2678SOL    HW2 8034   3.071   5.347   5.148  0.9205  0.6456  0.2754
 2679SOL     OW 8035   0.880   3.663   4.064  0.0535 -0.6851  0.0903
 2679SOL    HW1 8036   0.787   3.673   4.043  0.4541  2.1749 -0.6600
 2679SOL    HW2 8037   0.894   3.720   4.139  1.5139  0.2503 -0.8431
 2680SOL     OW 8038   2.816   5.701   2.825 -0.2139  0.4134  0.3022
 2680SOL    HW1 8039   2.756   5.631   2.850  0.9488 -0.5714  0.4036
 2680SOL    HW2 8040   2.790   5.775   2.880 -0.6220 -0.3376  1.1498
 2681SOL     OW 8041   1.655   1.542   0.250 -0.1664  0.0484 -0.2383
 2681SOL    HW1 8042   1.669   1.509   0.161 -0.9628 -1.6971  0.2257
 2681SOL    HW2 8043   1.565   1.573   0.250  0.2433  1.2758 -0.3727
 2682SOL     OW 8044   4.997   4.927   4.498 -0.3222  0.3832 -0.3224
 2682SOL    HW1 8045   4.975   4.876   4.576 -1.3198  0.3390 -0.6120
 2682SOL    HW2 8046   5.088   4.904   4.478 -0.3686 -0.3333  0.2700
 2683SOL     OW 8047   2.599   2.037   0.452  0.0054 -0.2661  0.2717
 2683SOL    HW1 8048   2.509   2.043   0.485  0.1947 -0.0633  0.7471
 2683SOL    HW2 8049   2.639   2.120   0.476 -0.9936  1.7337 -3.9355
 2684SOL     OW 8050   5.701   0.549   4.800  0.0660 -0.5788 -0.6023
 2684SOL    HW1 8051   5.644   0.510   4.866  0.8742 -0.4249  0.2098
 2684SOL    HW2 8052   5.681   0.643   4.803  0.1943 -0.5551 -0.4835
 2685SOL     OW 8053   3.462   5.983   4.450  0.3232  0.6832  0.5321
 2685SOL    HW1 8054   3.523   5.926   4.496  0.5728 -1.0655 -1.7901
 2685SOL    HW2 8055   3.392   5.925   4.420 -0.0756  1.8079 -0.8477
 2686SOL     OW 8056   1.505   5.610   4.684 -0.4524  0.3073  0.2259
 2686SOL    HW1 8057   1.509   5.628   4.590  0.7795 -0.8620  0.0397
 2686SOL    HW2 8058   1.554   5.682   4.725 -0.2882  0.3718 -0.0852
 2687SOL     OW 8059   1.639   5.241   5.751 -0.2186 -0.3404 -0.0124
 2687SOL    HW1 8060   1.676   5.296   5.820 -1.8445  0.6457  0.1333
 2687SOL    HW2 8061   1.545   5.258   5.756 -0.5422 -1.6462 -1.2874
 2688SOL     OW 8062   3.228   5.040   3.297 -0.1401  0.2947  0.1603
 2688SOL    HW1 8063   3.313   5.029   3.339  0.6929 -0.5806 -1.6286
 2688SOL    HW2 8064   3.227   5.131   3.267  0.6262  0.0489 -0.6707
 2689SOL     OW 8065   5.900   3.957   4.093  0.1437 -0.5804  0.0078
 2689SOL    HW1 8066   5.899   3.873   4.046 -1.1218 -0.3525 -0.4158
 2689SOL    HW2 8067   5.891   3.932   4.185  2.5963 -1.0274  0.1983
 2690SOL     OW 8068   2.446   5.952   5.491  0.4209 -0.2607 -0.6439
 2690SOL    HW1 8069   2.442   5.891   5.564  1.7066  0.1903 -0.1656
 2690SOL    HW2 8070   2.390   6.025   5.517 -0.6715 -0.9603 -0.9747
 2691SOL     OW 8071   3.955   0.905   3.536 -0.1418  0.6053  0.3122
 2691SOL    HW1 8072   4.031   0.854   3.563 -0.2402 -0.9095 -1.9740
 2691SOL    HW2 8073   3.883   0.870   3.589 -0.1890 -1.6935 -1.1288
 2692SOL     OW 8074   2.550   0.768   3.703  0.2940  0.4351  0.0164
 2692SOL    HW1 8075   2.515   0.857   3.692  0.9792  0.4901 -2.4175
 2692SOL    HW2 8076   2.645   0.781   3.710  0.2834 -0.0372  1.1926
 2693SOL     OW 8077   3.450   5.361   5.902 -0.1471 -0.2030 -0.3303
 2693SOL    HW1 8078   3.424   5.377   5.811 -0.0198 -0.9600 -0.5019
 2693SOL    HW2 8079   3.542   5.335   5.897 -0.1335 -0.2252  0.0212
 2694SOL     OW 8080   2.411   3.932   4.562 -0.3355 -0.2980 -0.0863
 2694SOL    HW1 8081   2.433   3.906   4.651 -2.7604 -0.0876  0.6406
 2694SOL    HW2 8082   2.457   4.014   4.549 -1.1069  0.4462  1.5716
 2695SOL     OW 8083   2.299   3.932   3.060  0.1058  0.4760 -0.1565
 2695SOL    HW1 8084   2.377   3.965   3.018 -0.9729  1.0425 -1.8085
 2695SOL    HW2 8085   2.262   3.869   2.998 -2.6128  2.8040 -1.1308
 2696SOL     OW 8086   1.998   2.183   2.568  0.3372 -0.6309  0.8450
 2696SOL    HW1 8087   2.043   2.201   2.651 -0.1704 -0.4255  1.0829
 2696SOL    HW2 8088   1.913   2.227   2.577  1.8942  3.3995 -1.5413
 2697SOL     OW 8089   4.444   4.538   3.317 -0.1548 -0.3096  0.3007
 2697SOL    HW1 8090   4.367   4.529   3.261 -1.0306 -1.7938  1.6552
 2697SOL    HW2 8091   4.485   4.619   3.288 -1.4545 -0.1830 -1.3759
 2698SOL     OW 8092   2.714   2.629   3.691  0.0160 -0.1436  0.1168
 2698SOL    HW1 8093   2.801   2.616   3.652 -1.2262 -3.0020 -2.0546
 2698SOL    HW2 8094   2.731   2.643   3.784  2.8719  1.9481 -0.5701
 2699SOL     OW 8095   4.766   5.962   0.581 -0.0108 -0.2236  0.3927
 2699SOL    HW1 8096   4.854   5.923   0.583 -0.4924 -1.3602 -0.0548
 2699SOL    HW2 8097   4.744   5.976   0.673  0.1207 -1.1613  0.5811
 2700SOL     OW 8098   1.446   1.745   4.617 -0.2704  0.3437  0.1721
 2700SOL    HW1 8099   1.388   1.758   4.541  0.8230 -0.3852 -0.8062
 2700SOL    HW2 8100   1.389   1.763   4.692 -1.3720  1.1504 -0.7975
 2701SOL     OW 8101   2.894   5.595   1.371  0.0909  0.8464 -0.1909
 2701SOL    HW1 8102   2.915   5.688   1.362 -0.8514  1.1012  0.0867
 2701SOL    HW2 8103   2.823   5.581   1.308 -2.0681  1.1237  2.0325
 2702SOL     OW 8104   4.546   1.265   5.085  0.7423 -0.6864 -0.1206
 2702SOL    HW1 8105   4.623   1.294   5.037 -1.6051  2.1683 -2.5998
 2702SOL    HW2 8106   4.524   1.340   5.141  0.4619 -1.9688  1.5614
 2703SOL     OW 8107   3.489   5.010   2.450 -0.3606  0.5444 -0.4187
 2703SOL    HW1 8108   3.574   5.021   2.407 -0.5229 -0.3316 -0.9814
 2703SOL    HW2 8109   3.473   5.094   2.493  0.2585  1.1022 -1.2558
 2704SOL     OW 8110   2.566   3.842   5.482  0.1769 -0.2139 -0.0214
 2704SOL    HW1 8111   2.621   3.894   5.424 -0.9708  1.1570  0.0594
 2704SOL    HW2 8112   2.483   3.832   5.436 -0.3609 -0.1007  0.8861
 2705SOL     OW 8113   2.939   1.718   4.824  0.1966  0.3382  0.2461
 2705SOL    HW1 8114   2.956   1.802   4.781  3.1285  0.2120  1.0086
 2705SOL    HW2 8115   2.956   1.653   4.755  1.4775  0.2740  0.5978
 2706SOL     OW 8116   4.260   0.158   3.804 -0.3375 -0.4670 -0.3264
 2706SOL    HW1 8117   4.335   0.107   3.834 -1.2413 -1.0572  1.0195
 2706SOL    HW2 8118   4.202   0.161   3.879 -0.6920  1.8796 -0.6379
 2707SOL     OW 8119   3.988   5.072   2.102  0.4439  0.3437 -0.0065
 2707SOL    HW1 8120   3.938   5.153   2.100  0.5509  0.5799  3.0072
 2707SOL    HW2 8121   3.937   5.012   2.047 -0.3505  2.0245 -1.2040
 2708SOL     OW 8122   0.418   4.849   0.630  0.3902  0.0106  0.1027
 2708SOL    HW1 8123   0.391   4.884   0.715  0.7562 -1.9112  1.0714
 2708SOL    HW2 8124   0.492   4.903   0.604 -0.0040  0.9088  0.7836
 2709SOL     OW 8125   3.723   0.188   1.063  0.1462  0.0043  0.0779
 2709SOL    HW1 8126   3.756   0.100   1.048  0.0764 -0.0054 -0.0156
 2709SOL    HW2 8127   3.776   0.222   1.135 -1.1856 -0.8600  1.5223
 2710SOL     OW 8128   3.719   2.581   5.201  0.0373  0.3600  0.4393
 2710SOL    HW1 8129   3.780   2.508   5.210 -1.1557 -0.6429  0.8121
 2710SOL    HW2 8130   3.635   2.539   5.179 -0.9325  1.5074  1.7507
 2711SOL     OW 8131   4.054   4.849   5.521 -0.8740 -0.1144  0.0671
 2711SOL    HW1 8132   4.072   4.813   5.434 -2.4129 -0.0052 -0.3300
 2711SOL    HW2 8133   4.095   4.936   5.520  1.6926 -1.2313  0.5506
 2712SOL     OW 8134   4.290   4.042   4.981 -0.6483  0.6833 -0.4404
 2712SOL    HW1 8135   4.258   4.038   4.891 -0.8606  1.7492 -0.4223
 2712SOL    HW2 8136   4.275   4.132   5.008  1.9168  1.1126 -0.2415
 2713SOL     OW 8137   4.931   0.998   3.122  0.1102  0.5652 -0.6354
 2713SOL    HW1 8138   5.013   1.023   3.080  0.8490 -0.8254 -0.0795
 2713SOL    HW2 8139   4.922   1.059   3.196 -0.2438  1.7965 -1.6430
 2714SOL     OW 8140   3.891   1.021   5.588  0.1494  0.2745 -0.6220
 2714SOL    HW1 8141   3.800   0.990   5.585 -0.0795  0.4052  2.2033
 2714SOL    HW2 8142   3.903   1.066   5.504 -2.2782 -0.0324 -1.2343
 2715SOL     OW 8143   0.374   5.798   0.215  0.2287  0.3420  0.4894
 2715SOL    HW1 8144   0.366   5.749   0.297 -2.2019  1.2395  0.8768
 2715SOL    HW2 8145   0.332   5.742   0.150  1.4636 -0.0246 -0.0154
 2716SOL     OW 8146   3.053   0.138   0.342  0.2578  0.0314 -0.1590
 2716SOL    HW1 8147   3.019   0.141   0.431  0.1467 -0.8892 -0.1599
 2716SOL    HW2 8148   3.145   0.117   0.352  0.6686  1.6956 -0.1957
 2717SOL     OW 8149   2.364   0.574   2.463  0.3309 -0.3809  0.0004
 2717SOL    HW1 8150   2.406   0.531   2.389 -1.1186 -0.2524 -0.9397
 2717SOL    HW2 8151   2.282   0.526   2.475  0.6645 -0.5992  1.7508
 2718SOL     OW 8152   3.424   0.135   3.042  0.2648 -0.1962  0.1530
 2718SOL    HW1 8153   3.407   0.116   2.950  0.1441  1.5000 -0.2074
 2718SOL    HW2 8154   3.519   0.130   3.050  0.2991 -0.0330 -0.1395
 2719SOL     OW 8155   3.190   1.830   5.738  0.3665 -0.3114 -0.2788
 2719SOL    HW1 8156   3.142   1.911   5.752 -0.8475 -1.1305  0.4702
 2719SOL    HW2 8157   3.143   1.785   5.668  1.1418 -0.2871 -0.8251
 2720SOL     OW 8158   2.274   4.896   5.800 -0.0334  0.1454 -0.0115
 2720SOL    HW1 8159   2.276   4.841   5.721 -0.8694 -1.4995  1.0538
 2720SOL    HW2 8160   2.259   4.984   5.766  1.3808 -0.2373 -1.7912
 2721SOL     OW 8161   3.676   3.788   4.804 -0.0347 -0.2129  0.5099
 2721SOL    HW1 8162   3.644   3.700   4.786  4.1604 -2.0207  0.9069
 2721SOL    HW2 8163   3.668   3.797   4.899  0.1776 -0.4328  0.5476
 2722SOL     OW 8164   5.678   5.708   5.289  0.2434 -0.1779  0.0720
 2722SOL    HW1 8165   5.737   5.635   5.268  0.8420  0.6987 -1.4755
 2722SOL    HW2 8166   5.730   5.765   5.345 -0.3163 -1.0289  1.5094
 2723SOL     OW 8167   1.763   5.143   4.577 -0.2916 -0.6988 -0.5587
 2723SOL    HW1 8168   1.806   5.198   4.642 -0.3724 -0.2316 -0.8951
 2723SOL    HW2 8169   1.679   5.185   4.561  0.0195 -0.3978 -1.4922
 2724SOL     OW 8170   1.288   0.246   5.942  0.6042 -0.1658 -0.2285
 2724SOL    HW1 8171   1.255   0.227   6.030  0.5467 -0.4182 -0.3032
 2724SOL    HW2 8172   1.382   0.228   5.947  0.8365  1.0842  0.1331
 2725SOL     OW 8173   5.191   0.276   5.285  0.1775  0.2516 -0.3841
 2725SOL    HW1 8174   5.248   0.352   5.295  1.7997 -1.0454  0.7468
 2725SOL    HW2 8175   5.212   0.219   5.360 -0.1467 -1.8202 -1.7720
 2726SOL     OW 8176   2.769   5.217   4.733  0.0722  0.5536  1.4084
 2726SOL    HW1 8177   2.726   5.150   4.786 -0.1974  0.0459  0.5679
 2726SOL    HW2 8178   2.863   5.202   4.747  0.0058  0.4231  1.7340
 2727SOL     OW 8179   3.492   0.379   4.410  0.1380  0.4165 -0.4372
 2727SOL    HW1 8180   3.477   0.368   4.504 -0.5678  0.3320 -0.5563
 2727SOL    HW2 8181   3.434   0.314   4.369  0.3144  0.5725 -0.9392
 2728SOL     OW 8182   1.976   1.931   4.284  0.1831  0.0499  0.3920
 2728SOL    HW1 8183   2.064   1.906   4.312  0.3222  0.8029  0.6536
 2728SOL    HW2 8184   1.929   1.848   4.277  0.3481 -0.2399  2.1988
 2729SOL     OW 8185   1.927   1.401   4.689  0.0203  0.6532 -0.2567
 2729SOL    HW1 8186   1.841   1.366   4.664  0.1137  0.5577 -0.4502
 2729SOL    HW2 8187   1.960   1.441   4.609  0.1271  0.7473 -0.1640
 2730SOL     OW 8188   1.533   2.799   0.092 -0.5132  0.0283 -0.1714
 2730SOL    HW1 8189   1.455   2.747   0.070 -1.6136  0.9373  1.3903
 2730SOL    HW2 8190   1.591   2.736   0.134 -0.3847 -0.6534 -1.3077
 2731SOL     OW 8191   1.462   4.274   4.501 -0.1223 -0.2465  0.0335
 2731SOL    HW1 8192   1.494   4.299   4.415  1.3322 -1.2712  0.2322
 2731SOL    HW2 8193   1.367   4.270   4.492  0.0140 -0.4096 -1.5462
 2732SOL     OW 8194   3.960   5.579   0.760 -0.1025  0.0345  0.0171
 2732SOL    HW1 8195   3.865   5.575   0.773  0.1553  0.5324  2.5557
 2732SOL    HW2 8196   3.995   5.508   0.814  1.0195  0.2475 -0.3942
 2733SOL     OW 8197   4.283   5.225   2.955  0.1441 -0.5498 -0.2712
 2733SOL    HW1 8198   4.256   5.316   2.941  0.6174 -0.2503  0.7036
 2733SOL    HW2 8199   4.211   5.173   2.918 -0.4893  0.2173 -0.1502
 2734SOL     OW 8200   3.952   3.752   2.938  0.3190 -0.6013  0.0594
 2734SOL    HW1 8201   3.916   3.757   2.850  0.3076 -1.2758  0.0246
 2734SOL    HW2 8202   3.957   3.844   2.967  4.3871  0.1514 -2.2890
 2735SOL     OW 8203   3.267   4.695   5.531 -0.3516  0.1507  0.0614
 2735SOL    HW1 8204   3.185   4.708   5.484 -0.8603  0.8509  1.0987
 2735SOL    HW2 8205   3.284   4.601   5.526 -0.4560  0.1911 -1.3865
 2736SOL     OW 8206   3.054   2.070   4.943 -0.2016  0.5044  0.2186
 2736SOL    HW1 8207   3.058   1.987   4.895 -0.2548  1.0450 -0.7420
 2736SOL    HW2 8208   2.960   2.090   4.949 -0.2764 -0.1202  1.5710
 2737SOL     OW 8209   0.796   2.177   4.661  0.1606 -0.5007  0.4153
 2737SOL    HW1 8210   0.734   2.105   4.657  0.0828 -0.4650  0.9844
 2737SOL    HW2 8211   0.806   2.205   4.570 -1.7731  0.4503  0.4466
 2738SOL     OW 8212   0.572   3.769   4.055 -0.3364 -0.5112  0.3137
 2738SOL    HW1 8213   0.515   3.762   3.978 -0.2521  1.8231 -0.0537
 2738SOL    HW2 8214   0.520   3.818   4.119  1.3622  2.3525 -0.3062
 2739SOL     OW 8215   4.758   1.904   0.091  0.3422 -0.6544 -0.1421
 2739SOL    HW1 8216   4.799   1.979   0.133  2.2972 -2.1877  0.8949
 2739SOL    HW2 8217   4.684   1.882   0.147  1.6871 -1.3934  1.4426
 2740SOL     OW 8218   4.545   4.070   3.772  0.2164  0.3963  0.5139
 2740SOL    HW1 8219   4.509   3.999   3.719 -1.2309  1.1977  0.3734
 2740SOL    HW2 8220   4.591   4.026   3.843 -0.7869 -0.6845  0.5178
 2741SOL     OW 8221   3.664   1.681   5.750  0.0757  0.0435 -0.4809
 2741SOL    HW1 8222   3.669   1.738   5.827  0.2209 -1.1523  0.4233
 2741SOL    HW2 8223   3.754   1.676   5.718  0.1342 -0.0113 -0.3091
 2742SOL     OW 8224   3.154   0.517   5.266  0.5395  0.2593  0.6968
 2742SOL    HW1 8225   3.142   0.431   5.225  0.9480  0.3145  0.4663
 2742SOL    HW2 8226   3.083   0.522   5.330  0.6631 -0.3617  0.8916
 2743SOL     OW 8227   2.455   4.874   0.298 -0.3008 -0.1901  0.2390
 2743SOL    HW1 8228   2.481   4.854   0.208  0.1971 -1.4639  0.6430
 2743SOL    HW2 8229   2.366   4.839   0.306  0.1366 -1.2842  0.5988
 2744SOL     OW 8230   4.320   0.942   4.272  0.4807  0.4216 -0.1004
 2744SOL    HW1 8231   4.361   0.885   4.207 -0.1586  0.0384 -0.1775
 2744SOL    HW2 8232   4.228   0.948   4.245 -0.5134 -2.0602  2.2977
 2745SOL     OW 8233   1.407   3.976   3.798 -0.0326  0.2512  0.4174
 2745SOL    HW1 8234   1.370   3.996   3.712  2.4170  1.9718 -0.3617
 2745SOL    HW2 8235   1.364   4.037   3.858 -0.0539  0.6873 -0.0352
 2746SOL     OW 8236   3.268   4.314   5.913  0.1574 -0.4543 -0.3843
 2746SOL    HW1 8237   3.203   4.244   5.904  0.4867 -0.6139 -1.6393
 2746SOL    HW2 8238   3.232   4.370   5.982  0.6466 -2.6738  1.8103
 2747SOL     OW 8239   2.361   0.669   5.493  0.0713 -0.2326  0.5638
 2747SOL    HW1 8240   2.319   0.594   5.452 -1.1738  0.9674 -0.4675
 2747SOL    HW2 8241   2.368   0.645   5.585 -0.4273 -1.5474  0.2831
 2748SOL     OW 8242   3.105   5.190   4.293 -0.0138 -0.0513 -0.0354
 2748SOL    HW1 8243   3.123   5.172   4.385 -1.5011 -0.2403  0.2458
 2748SOL    HW2 8244   3.027   5.138   4.273 -1.0681  1.7268 -0.7574
 2749SOL     OW 8245   4.652   2.486   2.799 -0.0398 -0.4937  0.5951
 2749SOL    HW1 8246   4.705   2.428   2.745  1.3565  0.4609  0.8701
 2749SOL    HW2 8247   4.716   2.546   2.838 -1.4914  2.3887 -1.0845
 2750SOL     OW 8248   0.864   5.512   4.534 -0.0398  0.3533  0.2375
 2750SOL    HW1 8249   0.855   5.437   4.475  0.8236 -1.0860  1.8455
 2750SOL    HW2 8250   0.838   5.587   4.481  0.7330 -0.8509 -1.9894
 2751SOL     OW 8251   2.898   0.807   5.190 -0.1983 -0.0035  0.2233
 2751SOL    HW1 8252   2.910   0.866   5.264  0.5972  0.3588 -0.1827
 2751SOL    HW2 8253   2.985   0.770   5.174 -0.4478 -0.3973 -0.2595
 2752SOL     OW 8254   4.391   4.954   4.877 -0.7909 -0.0569  0.2690
 2752SOL    HW1 8255   4.458   4.925   4.938 -0.1208 -0.4545 -0.6348
 2752SOL    HW2 8256   4.440   4.983   4.800 -1.5979  0.7847  0.0513
 2753SOL     OW 8257   0.872   2.247   4.888  0.4539  0.3571 -0.6631
 2753SOL    HW1 8258   0.967   2.236   4.890  0.4579  0.2092  1.4056
 2753SOL    HW2 8259   0.848   2.237   4.796  2.4711  0.7863 -1.2924
 2754SOL     OW 8260   3.055   5.472   1.553 -0.1575  0.0474 -0.2107
 2754SOL    HW1 8261   3.013   5.514   1.478 -2.9611  0.8763  1.6581
 2754SOL    HW2 8262   2.999   5.398   1.575  1.1537 -0.7826  0.5102
 2755SOL     OW 8263   5.008   2.514   4.745 -0.0498  0.1981 -0.0812
 2755SOL    HW1 8264   5.088   2.559   4.770 -0.1948  0.0916  0.5884
 2755SOL    HW2 8265   5.038   2.437   4.697  0.2266  0.4972 -0.3926
 2756SOL     OW 8266   5.771   5.008   0.386  0.0776 -0.4600  0.1343
 2756SOL    HW1 8267   5.866   5.004   0.398  0.0999 -0.9148 -0.1790
 2756SOL    HW2 8268   5.738   5.045   0.468  0.5959  0.5175 -0.0860
 2757SOL     OW 8269   3.759   3.071   5.294  0.4345  0.0411  0.2367
 2757SOL    HW1 8270   3.683   3.082   5.236 -0.7073  2.6240  2.0233
 2757SOL    HW2 8271   3.755   2.979   5.322 -2.6073  0.2603  0.8882
 2758SOL     OW 8272   4.587   1.979   3.993  0.1198 -0.1732  0.3623
 2758SOL    HW1 8273   4.572   1.931   3.912 -2.6485  0.6830  0.2686
 2758SOL    HW2 8274   4.652   1.927   4.041 -1.1553 -2.8593 -0.6379
 2759SOL     OW 8275   4.898   4.510   3.232  0.4581 -0.1847  0.5791
 2759SOL    HW1 8276   4.816   4.472   3.262 -0.0198  0.8146  0.5811
 2759SOL    HW2 8277   4.962   4.486   3.299  0.5746 -2.3792 -0.2296
 2760SOL     OW 8278   1.031   4.932   1.154  0.2159  0.3224 -0.0335
 2760SOL    HW1 8279   1.010   4.975   1.071  1.2073 -0.8036 -0.9011
 2760SOL    HW2 8280   1.078   4.853   1.129  1.0442  0.2441  1.6401
 2761SOL     OW 8281   3.832   5.082   2.998 -0.0924 -0.3215 -0.4909
 2761SOL    HW1 8282   3.753   5.130   3.021 -0.5140 -0.8873 -0.7156
 2761SOL    HW2 8283   3.809   4.990   3.014  1.1336 -0.3818  1.2487
 2762SOL     OW 8284   2.149   6.019   1.542 -0.3375  0.2182 -0.2399
 2762SOL    HW1 8285   2.132   5.963   1.617 -0.4948 -0.3658 -0.6975
 2762SOL    HW2 8286   2.231   5.986   1.506 -0.1579  0.6244 -0.2101
 2763SOL     OW 8287   0.372   4.846   3.678  0.0642  0.1476 -0.0021
 2763SOL    HW1 8288   0.404   4.772   3.729 -0.7005  0.4171  0.8956
 2763SOL    HW2 8289   0.432   4.918   3.701 -0.0624  0.1752  0.2475
 2764SOL     OW 8290   2.985   0.428   5.044 -0.1473  0.4432  0.4811
 2764SOL    HW1 8291   3.055   0.491   5.057  0.5856 -0.0048 -1.0669
 2764SOL    HW2 8292   2.919   0.474   4.993 -0.2456  0.3610  0.5316
 2765SOL     OW 8293   2.065   4.511   5.186  0.1024  0.3763 -0.4199
 2765SOL    HW1 8294   2.132   4.490   5.120 -0.2963 -1.6097 -0.2658
 2765SOL    HW2 8295   2.009   4.433   5.189 -0.6258  0.9135  1.3993
 2766SOL     OW 8296   3.586   1.729   0.283  0.4044 -0.9261 -0.2059
 2766SOL    HW1 8297   3.613   1.666   0.349 -2.2508 -0.4019  1.5468
 2766SOL    HW2 8298   3.503   1.694   0.249 -1.3580  1.6445  1.0821
 2767SOL     OW 8299   2.734   5.822   2.423  0.5781  0.5160 -0.3106
 2767SOL    HW1 8300   2.685   5.751   2.464  0.7619  0.9856  0.7578
 2767SOL    HW2 8301   2.775   5.782   2.346  0.0145 -0.3265 -0.1856
 2768SOL     OW 8302   2.208   5.685   4.164  0.2516  0.8636  0.0650
 2768SOL    HW1 8303   2.295   5.658   4.136  0.3285  0.4822  0.6525
 2768SOL    HW2 8304   2.195   5.770   4.122  1.8627  2.0404  1.7766
 2769SOL     OW 8305   4.700   2.958   1.422 -0.1794  0.8592  0.8934
 2769SOL    HW1 8306   4.784   2.968   1.467 -0.3863  1.3593  1.1851
 2769SOL    HW2 8307   4.637   3.000   1.481 -0.6123  0.6125  0.6103
 2770SOL     OW 8308   2.739   5.216   5.425 -0.6524  0.4256  0.0607
 2770SOL    HW1 8309   2.735   5.187   5.334  1.4270  2.5251 -0.8103
 2770SOL    HW2 8310   2.648   5.216   5.454 -1.3285 -0.6865 -1.8779
 2771SOL     OW 8311   0.898   3.743   5.071  0.4917  0.3836 -0.4472
 2771SOL    HW1 8312   0.849   3.666   5.041 -0.0848  1.6586 -2.9982
 2771SOL    HW2 8313   0.865   3.759   5.159 -0.8897 -1.0367 -0.6538
 2772SOL     OW 8314   3.775   0.602   0.691 -0.0213 -0.4653 -0.1504
 2772SOL    HW1 8315   3.707   0.640   0.636  0.9203  2.3368  0.4908
 2772SOL    HW2 8316   3.854   0.604   0.637  0.3088 -0.3391  0.3305
 2773SOL     OW 8317   3.055   1.595   0.165 -0.0968 -0.0909 -0.6763
 2773SOL    HW1 8318   3.037   1.511   0.124 -0.9862 -0.9133  1.2333
 2773SOL    HW2 8319   3.142   1.586   0.203 -0.4363 -0.4171  0.0578
 2774SOL     OW 8320   3.401   1.927   3.121 -0.0541  0.1007  0.0048
 2774SOL    HW1 8321   3.388   1.886   3.206  1.6705 -0.7461 -0.0901
 2774SOL    HW2 8322   3.425   1.855   3.063  0.1159  0.8439 -0.8798
 2775SOL     OW 8323   2.091   5.905   5.183 -0.5776 -0.5706  0.4858
 2775SOL    HW1 8324   2.091   5.998   5.160 -0.4250 -0.9048 -1.0160
 2775SOL    HW2 8325   2.180   5.876   5.164 -0.6815 -1.0651  0.7560
 2776SOL     OW 8326   3.096   4.766   3.784  0.1541  0.0896  0.6426
 2776SOL    HW1 8327   3.022   4.801   3.734  0.9692  1.5642  0.4115
 2776SOL    HW2 8328   3.150   4.721   3.719 -0.2663 -0.5416  0.7234
 2777SOL     OW 8329   2.152   5.010   4.605  0.0965 -0.5093  0.7297
 2777SOL    HW1 8330   2.132   4.941   4.668 -1.3712 -2.8559 -2.0550
 2777SOL    HW2 8331   2.161   4.964   4.522  0.2421  2.5858 -1.1171
 2778SOL     OW 8332   3.056   2.268   0.431 -0.5184  0.0335 -0.1032
 2778SOL    HW1 8333   3.048   2.250   0.337  2.8537 -0.4190 -0.4313
 2778SOL    HW2 8334   3.024   2.188   0.473 -0.4163 -0.4564 -0.9372
 2779SOL     OW 8335   5.886   1.781   5.028  0.1848 -0.3872  0.0754
 2779SOL    HW1 8336   5.930   1.864   5.044 -0.3905 -0.3257  1.4556
 2779SOL    HW2 8337   5.957   1.718   5.016  0.6827 -0.2688  2.1437
 2780SOL     OW 8338   1.885   1.727   3.121 -0.4417  0.1372 -0.1559
 2780SOL    HW1 8339   1.935   1.798   3.161  1.9320  0.2718 -3.0180
 2780SOL    HW2 8340   1.936   1.649   3.139 -0.6062 -0.1432 -0.8726
 2781SOL     OW 8341   2.742   2.115   4.924  0.8452  0.0724  0.2359
 2781SOL    HW1 8342   2.676   2.176   4.957 -0.5394 -1.0498 -0.3253
 2781SOL    HW2 8343   2.695   2.031   4.918  1.8030 -0.3546 -1.9551
 2782SOL     OW 8344   4.501   1.597   3.300 -0.0080  0.3598 -0.2812
 2782SOL    HW1 8345   4.451   1.515   3.306  0.9726 -0.4217 -1.9803
 2782SOL    HW2 8346   4.565   1.580   3.231 -0.6604  3.0603 -1.6550
 2783SOL     OW 8347   3.860   4.463   5.669 -0.1123 -0.1930  0.6610
 2783SOL    HW1 8348   3.861   4.460   5.573 -2.6749  0.3295  0.5484
 2783SOL    HW2 8349   3.838   4.553   5.690  0.2444 -0.3469  1.7335
 2784SOL     OW 8350   4.105   0.675   3.540 -0.4218 -0.5789  0.5853
 2784SOL    HW1 8351   4.030   0.620   3.519 -0.1100 -0.6653 -0.3494
 2784SOL    HW2 8352   4.174   0.646   3.480 -0.5941  1.5886 -0.7801
 2785SOL     OW 8353   2.288   4.488   5.663 -0.6404  0.4768  0.4172
 2785SOL    HW1 8354   2.328   4.529   5.586 -0.1027 -0.1403  0.3636
 2785SOL    HW2 8355   2.316   4.397   5.659  0.4218  0.6907  2.0040
 2786SOL     OW 8356   5.008   4.046   4.238  0.3529 -0.4956 -0.0387
 2786SOL    HW1 8357   4.921   4.013   4.261  0.9899 -2.5145 -0.3283
 2786SOL    HW2 8358   5.029   4.003   4.155  0.6810  1.8164 -1.2479
 2787SOL     OW 8359   0.878   1.632   4.203  0.1291 -0.2280 -0.7009
 2787SOL    HW1 8360   0.878   1.537   4.195 -0.3615 -0.3745  0.7404
 2787SOL    HW2 8361   0.952   1.652   4.260 -0.4605  0.1474 -0.0530
 2788SOL     OW 8362   5.054   2.234   5.719 -0.5074  0.2118  0.2097
 2788SOL    HW1 8363   5.071   2.167   5.652 -1.5938  0.7811 -0.6802
 2788SOL    HW2 8364   5.019   2.308   5.669 -0.5985  0.9441  1.3357
 2789SOL     OW 8365   2.706   3.355   4.513  0.1332  0.0267 -0.1993
 2789SOL    HW1 8366   2.786   3.322   4.553 -0.9209 -1.9705  0.3618
 2789SOL    HW2 8367   2.655   3.391   4.586  0.6484  1.7017 -0.6125
 2790SOL     OW 8368   2.440   5.250   5.228 -0.2677  0.2741 -0.1832
 2790SOL    HW1 8369   2.416   5.342   5.231 -0.7567  0.1455 -0.0273
 2790SOL    HW2 8370   2.528   5.249   5.189 -1.1163  0.6466 -2.2529
 2791SOL     OW 8371   2.464   1.906   5.494 -0.3355  0.1099 -0.3692
 2791SOL    HW1 8372   2.546   1.952   5.474 -1.0939  1.0523 -1.4664
 2791SOL    HW2 8373   2.479   1.816   5.465  0.1128  0.4195 -1.1342
 2792SOL     OW 8374   3.336   5.660   0.761  0.1952 -0.1070 -0.2530
 2792SOL    HW1 8375   3.283   5.731   0.725 -0.6041 -1.4345 -1.8571
 2792SOL    HW2 8376   3.409   5.704   0.806 -0.7443  1.7052 -0.4191
 2793SOL     OW 8377   1.932   1.718   5.245  0.2280  0.0796 -0.2267
 2793SOL    HW1 8378   2.010   1.758   5.207 -0.0614  0.4159 -0.4718
 2793SOL    HW2 8379   1.877   1.695   5.171  0.0009  0.0402 -0.0497
 2794SOL     OW 8380   2.827   4.478   5.314  0.1871  0.4016  0.5358
 2794SOL    HW1 8381   2.841   4.528   5.394  1.3285  0.5637  0.2558
 2794SOL    HW2 8382   2.835   4.386   5.341  1.3953  0.4756  0.4782
 2795SOL     OW 8383   2.873   4.936   5.214 -0.2947  0.0652 -0.2479
 2795SOL    HW1 8384   2.907   4.940   5.303 -2.2519  0.2943  0.5351
 2795SOL    HW2 8385   2.929   4.996   5.165  0.8546 -0.1131  0.7854
 2796SOL     OW 8386   2.091   2.154   4.039 -0.4463 -0.7320 -0.2936
 2796SOL    HW1 8387   2.128   2.071   4.071  0.6614 -0.3172 -0.4567
 2796SOL    HW2 8388   2.044   2.190   4.114  0.4873 -0.7005  0.2884
 2797SOL     OW 8389   3.322   1.769   4.812  0.1651 -0.1466 -0.5562
 2797SOL    HW1 8390   3.366   1.845   4.776  2.7962 -0.0569  2.4395
 2797SOL    HW2 8391   3.287   1.799   4.897 -1.1498 -1.6149 -0.5246
 2798SOL     OW 8392   3.157   5.965   2.867 -0.0261  0.1595 -0.0744
 2798SOL    HW1 8393   3.181   5.884   2.821 -0.6216 -0.2249  0.2721
 2798SOL    HW2 8394   3.173   5.945   2.959  1.8285  1.1602 -0.1374
 2799SOL     OW 8395   2.142   1.334   5.419  0.3964 -0.2071  0.6833
 2799SOL    HW1 8396   2.071   1.269   5.413 -0.5895  0.7758  1.2824
 2799SOL    HW2 8397   2.184   1.331   5.333  0.3011 -1.5482  0.6574
 2800SOL     OW 8398   2.566   5.732   5.304  0.3732 -0.0416  0.0969
 2800SOL    HW1 8399   2.658   5.737   5.329  0.7121 -0.3513 -1.0377
 2800SOL    HW2 8400   2.520   5.781   5.372  1.2733 -0.6226  1.1602
 2801SOL     OW 8401   5.771   5.391   0.394  0.0790 -0.1825 -0.5217
 2801SOL    HW1 8402   5.755   5.302   0.364  0.8974 -0.9304  1.1380
 2801SOL    HW2 8403   5.834   5.427   0.332 -1.3239 -0.2184 -2.0301
 2802SOL     OW 8404   1.981   1.624   2.352  0.0555 -0.2744 -0.2411
 2802SOL    HW1 8405   2.040   1.657   2.420 -0.0421  0.7332 -0.6320
 2802SOL    HW2 8406   1.902   1.598   2.399  0.3316 -0.4440  0.1362
 2803SOL     OW 8407   5.625   4.859   3.049  0.0571 -0.2490 -0.1486
 2803SOL    HW1 8408   5.608   4.832   3.139  2.1821  1.7133  0.9462
 2803SOL    HW2 8409   5.552   4.916   3.026  0.1250  0.2423  0.8157
 2804SOL     OW 8410   3.361   1.874   5.410  0.6805  0.3301  0.0367
 2804SOL    HW1 8411   3.452   1.846   5.414  0.8335  0.8286  0.1873
 2804SOL    HW2 8412   3.362   1.952   5.354  0.1838 -0.2816 -0.8514
 2805SOL     OW 8413   3.324   5.125   1.452 -0.9148  0.0992 -0.0458
 2805SOL    HW1 8414   3.287   5.144   1.538  1.9086  0.8642  1.1188
 2805SOL    HW2 8415   3.337   5.211   1.412  0.9001  0.0182  0.2560
 2806SOL     OW 8416   3.113   0.004   2.392  0.2542 -0.2580 -0.1237
 2806SOL    HW1 8417   3.094  -0.047   2.471 -0.3401 -2.3268 -1.5229
 2806SOL    HW2 8418   3.036   0.061   2.382  0.1775 -0.2275  0.6008
 2807SOL     OW 8419   1.781   0.179   4.833 -0.2428 -0.3226  0.3914
 2807SOL    HW1 8420   1.786   0.103   4.775  1.0746 -0.2276  0.3636
 2807SOL    HW2 8421   1.726   0.242   4.786  0.4524 -0.4144 -0.5519
 2808SOL     OW 8422   4.386   1.403   4.067 -0.1074  0.0841  0.3749
 2808SOL    HW1 8423   4.472   1.416   4.027  0.9249 -0.3458  2.3179
 2808SOL    HW2 8424   4.379   1.308   4.078 -1.0993  0.0686 -0.2787
 2809SOL     OW 8425   2.840   5.452   3.791  0.4076  0.0819 -0.4613
 2809SOL    HW1 8426   2.833   5.436   3.697 -0.3917  0.0261 -0.3984
 2809SOL    HW2 8427   2.772   5.517   3.810  1.6124  1.3136 -0.1913
 2810SOL     OW 8428   1.063   0.787   5.909  0.4281  0.1900 -0.1155
 2810SOL    HW1 8429   1.053   0.808   6.002  1.7452  1.4332 -0.2238
 2810SOL    HW2 8430   1.109   0.703   5.908 -0.8418 -0.5388  0.3311
 2811SOL     OW 8431   4.890   0.606   4.519  0.1449  0.2097 -0.2633
 2811SOL    HW1 8432   4.800   0.576   4.528  0.1434  0.4988  0.8685
 2811SOL    HW2 8433   4.888   0.698   4.546  0.8211  0.1272  0.1103
 2812SOL     OW 8434   1.099   5.729   2.564 -0.0508 -0.1650 -0.8949
 2812SOL    HW1 8435   1.156   5.806   2.569 -2.1233  1.5326 -1.7406
 2812SOL    HW2 8436   1.076   5.711   2.655 -2.1088  2.3824 -0.7654
 2813SOL     OW 8437   2.985   2.319   5.782 -0.1209  0.0889 -0.2275
 2813SOL    HW1 8438   2.889   2.318   5.781 -0.1409 -1.9084 -1.2093
 2813SOL    HW2 8439   3.007   2.391   5.842 -2.1963  1.2178 -0.7093
 2814SOL     OW 8440   1.191   2.640   5.196  0.7510 -0.0174 -0.4075
 2814SOL    HW1 8441   1.215   2.728   5.167 -0.3077 -0.0924 -1.5915
 2814SOL    HW2 8442   1.200   2.586   5.117  0.4616 -0.7781  0.0747
 2815SOL     OW 8443   5.581   0.771   3.861 -0.2432  0.0830  0.0966
 2815SOL    HW1 8444   5.542   0.850   3.897 -1.1656 -0.1663 -0.3170
 2815SOL    HW2 8445   5.574   0.781   3.766 -0.9221 -0.7433  0.0432
 2816SOL     OW 8446   3.289   5.333   4.124 -0.5012  0.3653 -0.2336
 2816SOL    HW1 8447   3.218   5.278   4.156  0.2642  0.2168  1.3225
 2816SOL    HW2 8448   3.270   5.346   4.031 -3.1019  1.1813  0.3257
 2817SOL     OW 8449   4.925   2.080   0.223 -0.1371  0.1861  0.2396
 2817SOL    HW1 8450   5.016   2.064   0.247  0.2679  0.0577 -1.2543
 2817SOL    HW2 8451   4.920   2.175   0.211 -0.3914  0.2749  0.9936
 2818SOL     OW 8452   2.571   1.330   4.491 -0.0223  0.1179 -0.0105
 2818SOL    HW1 8453   2.560   1.245   4.533  0.9215  1.2829  2.8678
 2818SOL    HW2 8454   2.664   1.333   4.468 -0.0947  0.3010 -0.2818
 2819SOL     OW 8455   5.381   1.196   3.286 -0.0674  0.0856 -0.0513
 2819SOL    HW1 8456   5.442   1.245   3.342  0.6268  0.0062 -0.7120
 2819SOL    HW2 8457   5.438   1.147   3.226 -0.7269 -1.5862  0.6220
 2820SOL     OW 8458   2.200   3.740   2.906 -0.2948  0.0466  0.3997
 2820SOL    HW1 8459   2.214   3.688   2.827 -2.0608 -1.6588  1.1211
 2820SOL    HW2 8460   2.107   3.730   2.926 -0.3886  2.3557  1.4210
 2821SOL     OW 8461   5.416   5.374   5.383 -0.1879 -0.0331 -0.0869
 2821SOL    HW1 8462   5.381   5.295   5.425  1.7592 -0.1767  1.4337
 2821SOL    HW2 8463   5.509   5.373   5.404  0.1679  1.9208 -1.2966
 2822SOL     OW 8464   4.609   2.390   0.256 -0.3976 -0.3653  0.2202
 2822SOL    HW1 8465   4.580   2.480   0.237 -0.2961 -0.3932 -0.0706
 2822SOL    HW2 8466   4.591   2.378   0.349  0.1001  0.1525  0.3914
 2823SOL     OW 8467   0.022   4.703   1.284  0.1609  0.2592 -0.1632
 2823SOL    HW1 8468   0.090   4.769   1.300  0.3528  0.5175 -1.8476
 2823SOL    HW2 8469   0.014   4.700   1.189 -1.5670 -0.4153 -0.0285
 2824SOL     OW 8470   0.875   0.524   3.851  0.5072 -0.3171 -0.6656
 2824SOL    HW1 8471   0.847   0.616   3.846 -0.4642 -0.6165 -0.9067
 2824SOL    HW2 8472   0.811   0.476   3.799  0.1241 -1.3247  0.6757
 2825SOL     OW 8473   2.453   5.129   4.086  0.0726  0.2275  0.1824
 2825SOL    HW1 8474   2.432   5.091   4.172  1.4884 -0.7247  0.1344
 2825SOL    HW2 8475   2.544   5.157   4.094 -0.4591  2.3055 -0.2849
 2826SOL     OW 8476   0.689   2.674   4.555  0.2138  0.3443  0.1135
 2826SOL    HW1 8477   0.601   2.682   4.518 -0.4808  1.1477  1.8230
 2826SOL    HW2 8478   0.685   2.595   4.609  0.3108  0.7540  0.7323
 2827SOL     OW 8479   4.405   0.621   4.248  0.6059 -0.0543  0.0854
 2827SOL    HW1 8480   4.385   0.680   4.175  1.5126 -1.2525 -1.2023
 2827SOL    HW2 8481   4.332   0.558   4.248  0.5159  0.0496  0.3308
 2828SOL     OW 8482   5.104   4.342   4.294 -0.6309  0.0237  0.3729
 2828SOL    HW1 8483   5.053   4.261   4.291 -0.2226 -0.2334  0.4041
 2828SOL    HW2 8484   5.053   4.400   4.351 -0.6315 -0.4109  0.8229
 2829SOL     OW 8485   0.563   1.966   4.134  0.3683 -0.1504  0.0468
 2829SOL    HW1 8486   0.511   1.978   4.055  1.7645 -0.5307 -0.9789
 2829SOL    HW2 8487   0.640   2.022   4.121  1.2445 -1.1942  0.5170
 2830SOL     OW 8488   3.566   3.225   5.585 -0.0745 -0.6803 -0.0759
 2830SOL    HW1 8489   3.616   3.151   5.548  0.8342 -0.3807  0.5166
 2830SOL    HW2 8490   3.475   3.206   5.561  0.2604 -1.4644 -0.8174
 2831SOL     OW 8491   4.802   4.546   5.527 -0.0217  0.3520  0.6934
 2831SOL    HW1 8492   4.737   4.598   5.480  1.6977  2.2389  0.2436
 2831SOL    HW2 8493   4.797   4.459   5.487 -1.3607  0.8043 -0.1883
 2832SOL     OW 8494   0.992   5.019   2.171 -0.0452 -0.2346 -0.4530
 2832SOL    HW1 8495   0.983   4.927   2.196  0.0187 -0.2152 -0.3580
 2832SOL    HW2 8496   1.083   5.040   2.189 -0.2191  0.0281  0.1261
 2833SOL     OW 8497   2.362   1.291   5.575  0.5298  0.5469 -0.4863
 2833SOL    HW1 8498   2.282   1.322   5.533  0.3807  0.9939  0.1082
 2833SOL    HW2 8499   2.406   1.239   5.508 -0.8111 -0.6705 -0.4739
 2834SOL     OW 8500   2.427   5.728   2.348 -0.1413  0.0715  0.1965
 2834SOL    HW1 8501   2.481   5.781   2.290  1.7264 -1.0298  0.8387
 2834SOL    HW2 8502   2.341   5.769   2.345  0.3734  1.1142 -1.8998
 2835SOL     OW 8503   0.900   1.398   4.060  1.1469  0.3628 -0.2070
 2835SOL    HW1 8504   0.827   1.449   4.025  0.5845 -0.1926  0.1133
 2835SOL    HW2 8505   0.956   1.381   3.985  0.6686  0.3485 -0.5677
 2836SOL     OW 8506   4.113   3.969   4.765  0.0857  0.0478 -0.0178
 2836SOL    HW1 8507   4.134   4.055   4.729 -0.3016  0.4603  0.7068
 2836SOL    HW2 8508   4.138   3.907   4.697 -0.8430  0.8054 -1.0782
 2837SOL     OW 8509   2.679   5.545   1.213 -0.3187 -0.6098  0.6068
 2837SOL    HW1 8510   2.681   5.463   1.163 -0.5331 -1.2951  1.6825
 2837SOL    HW2 8511   2.600   5.590   1.183  1.1116  0.4355 -1.8316
 2838SOL     OW 8512   4.452   5.602   0.338 -0.3215 -0.5397  1.0418
 2838SOL    HW1 8513   4.389   5.594   0.267 -0.4532 -1.1453  1.2227
 2838SOL    HW2 8514   4.407   5.652   0.405 -0.6779 -1.1071  1.2356
 2839SOL     OW 8515   4.896   2.997   4.222 -0.1027 -0.6614 -0.2467
 2839SOL    HW1 8516   4.809   2.991   4.184  0.5437  0.7026 -2.0937
 2839SOL    HW2 8517   4.882   3.035   4.309 -1.3681 -0.9729 -0.3004
 2840SOL     OW 8518   4.035   4.691   4.292 -0.0188  0.4301  0.0492
 2840SOL    HW1 8519   3.979   4.757   4.333  0.1190  0.7349 -0.2520
 2840SOL    HW2 8520   4.074   4.735   4.217  1.7309  0.6721  1.0385
 2841SOL     OW 8521   4.948   5.755   4.043 -0.5703  0.1255 -0.0544
 2841SOL    HW1 8522   4.961   5.848   4.026  3.0358 -0.4757 -1.5067
 2841SOL    HW2 8523   4.984   5.711   3.966  0.9570 -2.4969  1.9878
 2842SOL     OW 8524   2.364   0.053   4.440  0.2052  0.2347 -0.6311
 2842SOL    HW1 8525   2.323   0.039   4.355 -1.7839 -1.1679  0.4597
 2842SOL    HW2 8526   2.302   0.108   4.488  0.1050 -0.9267  0.6605
 2843SOL     OW 8527   1.770   0.243   4.332 -0.5584  0.2825 -0.1976
 2843SOL    HW1 8528   1.817   0.325   4.343 -0.3965  0.5083 -2.1651
 2843SOL    HW2 8529   1.678   0.265   4.347 -0.5041  0.8012 -0.6077
 2844SOL     OW 8530   4.651   5.969   2.465  0.0449  0.1252 -0.0207
 2844SOL    HW1 8531   4.722   5.912   2.496  0.6214  1.1361  0.5567
 2844SOL    HW2 8532   4.651   5.956   2.370  1.3974  0.5199 -0.1075
 2845SOL     OW 8533   3.731   5.121   0.473 -0.2215  0.0820  0.8308
 2845SOL    HW1 8534   3.661   5.133   0.409  0.5870  5.1344  0.4729
 2845SOL    HW2 8535   3.797   5.070   0.427 -0.3128  2.2398 -1.9747
 2846SOL     OW 8536   4.574   2.733   2.155  0.1110 -0.3660  0.0597
 2846SOL    HW1 8537   4.657   2.763   2.118 -0.2089  0.5955  0.0780
 2846SOL    HW2 8538   4.525   2.701   2.080 -1.1363  2.9821 -0.7151
 2847SOL     OW 8539   1.311   2.898   5.140 -0.7665  0.3499  0.8439
 2847SOL    HW1 8540   1.281   2.925   5.054 -0.5144 -0.4961  0.4824
 2847SOL    HW2 8541   1.407   2.906   5.136 -0.6952 -0.4153  0.7790
 2848SOL     OW 8542   0.735   5.926   4.522 -0.3591  0.0386  0.2190
 2848SOL    HW1 8543   0.747   6.020   4.537  0.3601  0.2756 -1.6230
 2848SOL    HW2 8544   0.778   5.884   4.597 -0.9131  1.1540  1.2051
 2849SOL     OW 8545   5.666   0.779   1.616 -0.0401 -0.4391  0.4667
 2849SOL    HW1 8546   5.654   0.689   1.586 -0.7596 -0.4067  0.6330
 2849SOL    HW2 8547   5.578   0.817   1.613 -0.0552 -0.2697  2.0568
 2850SOL     OW 8548   2.909   0.209   0.555 -0.1464  0.7659  0.6046
 2850SOL    HW1 8549   2.841   0.275   0.571 -0.2573  1.4777 -2.2006
 2850SOL    HW2 8550   2.877   0.131   0.599 -1.3275  1.8713  1.8067
 2851SOL     OW 8551   4.789   1.535   4.584 -0.0099 -0.5275 -0.3418
 2851SOL    HW1 8552   4.825   1.446   4.590  1.5433  0.0958 -0.1233
 2851SOL    HW2 8553   4.700   1.527   4.619 -0.1218 -2.1182 -0.9130
 2852SOL     OW 8554   5.665   5.187   4.560  0.5045 -0.5024 -0.0425
 2852SOL    HW1 8555   5.701   5.209   4.646 -0.9834 -1.7810  0.9537
 2852SOL    HW2 8556   5.637   5.271   4.523  1.7833  0.1432  0.3959
 2853SOL     OW 8557   2.026   1.752   0.908  0.1369  0.0593  1.1619
 2853SOL    HW1 8558   2.018   1.746   0.813 -1.2309  1.8566  1.1164
 2853SOL    HW2 8559   2.118   1.775   0.923  0.4552 -0.6004  0.3178
 2854SOL     OW 8560   1.767   3.231   1.315  0.0611 -0.1970  0.8870
 2854SOL    HW1 8561   1.744   3.247   1.407 -0.9324 -0.4801  0.6988
 2854SOL    HW2 8562   1.858   3.202   1.318  0.5275  1.2413  1.6362
 2855SOL     OW 8563   3.424   1.060   5.222 -0.1147 -0.1144  0.1341
 2855SOL    HW1 8564   3.432   1.091   5.312  0.0719  5.2822 -1.3953
 2855SOL    HW2 8565   3.506   1.013   5.205  1.2274  1.4182  1.9649
 2856SOL     OW 8566   3.239   2.234   5.924 -0.3323  0.2782 -0.0669
 2856SOL    HW1 8567   3.210   2.217   5.834  2.1052 -0.1368 -0.8655
 2856SOL    HW2 8568   3.252   2.147   5.962  1.1715  0.3850 -0.2598
 2857SOL     OW 8569   3.358   1.974   5.924 -0.2453 -0.3027  0.2403
 2857SOL    HW1 8570   3.325   1.923   5.851 -1.3913  0.0055  0.5152
 2857SOL    HW2 8571   3.438   2.016   5.890 -0.2867 -0.8357 -0.5445
 2858SOL     OW 8572   1.858   4.970   4.856 -0.0468  0.4444  0.7624
 2858SOL    HW1 8573   1.869   5.064   4.872 -1.4221  0.5003  1.5434
 2858SOL    HW2 8574   1.947   4.936   4.846  0.4556  1.8772  0.1694
 2859SOL     OW 8575   4.125   3.095   4.826  0.2626  0.4910  0.6884
 2859SOL    HW1 8576   4.186   3.042   4.877  0.4740 -1.6557 -1.6052
 2859SOL    HW2 8577   4.165   3.100   4.738 -2.6365 -0.7282 -0.8146
 2860SOL     OW 8578   2.139   5.655   5.331 -0.5213 -0.8525  0.1945
 2860SOL    HW1 8579   2.045   5.665   5.321 -0.4401  4.1012  1.7521
 2860SOL    HW2 8580   2.176   5.706   5.259  1.0876 -2.6890 -0.3780
 2861SOL     OW 8581   3.139   1.688   3.219 -0.0794 -0.0873 -0.3631
 2861SOL    HW1 8582   3.062   1.711   3.166 -1.9358 -1.4158  1.5699
 2861SOL    HW2 8583   3.147   1.593   3.211  1.5412  0.0520 -0.7068
 2862SOL     OW 8584   2.537   0.543   1.426  0.2889 -0.8847  0.3830
 2862SOL    HW1 8585   2.513   0.627   1.387  1.8503  0.4443  2.0807
 2862SOL    HW2 8586   2.506   0.478   1.364 -1.3865  0.9140 -0.7817
 2863SOL     OW 8587   3.569   1.039   0.978  0.1936  0.2850 -0.3030
 2863SOL    HW1 8588   3.598   0.991   1.056  1.8232 -0.0001 -1.0306
 2863SOL    HW2 8589   3.496   0.987   0.944  1.2181 -1.1421 -0.4558
 2864SOL     OW 8590   3.701   0.049   1.407  0.2231 -0.4246 -0.3976
 2864SOL    HW1 8591   3.743  -0.037   1.395  1.4424 -0.0560  1.0593
 2864SOL    HW2 8592   3.667   0.047   1.496 -1.2069  0.0264 -0.9049
 2865SOL     OW 8593   2.518   1.610   4.521  0.8183  0.1070  0.1071
 2865SOL    HW1 8594   2.527   1.516   4.512  1.5786  0.0912  0.9362
 2865SOL    HW2 8595   2.598   1.646   4.482  2.0328  0.2331  2.5234
 2866SOL     OW 8596   4.126   2.281   5.275  0.1879 -0.2156 -0.1051
 2866SOL    HW1 8597   4.140   2.186   5.276 -0.3054 -0.2878  0.7577
 2866SOL    HW2 8598   4.158   2.311   5.360 -1.3520  0.1202  0.3975
 2867SOL     OW 8599   4.815   3.178   3.808  0.5805 -0.4056  0.4726
 2867SOL    HW1 8600   4.840   3.156   3.718  0.1393 -0.0590  0.2564
 2867SOL    HW2 8601   4.891   3.155   3.861  1.2201  0.3031 -0.1171
 2868SOL     OW 8602   1.951   0.095   2.908  0.1361 -0.1321 -0.5058
 2868SOL    HW1 8603   1.950   0.018   2.852 -0.2532  0.5315 -1.4414
 2868SOL    HW2 8604   1.898   0.159   2.861 -2.1096 -0.2577  1.6730
 2869SOL     OW 8605   2.381   1.300   4.761  0.0689 -0.0594 -0.5491
 2869SOL    HW1 8606   2.443   1.258   4.821  2.3458  2.4222 -1.0072
 2869SOL    HW2 8607   2.328   1.357   4.816 -0.9113 -1.1181 -0.3567
 2870SOL     OW 8608   4.676   0.621   3.783 -0.0682 -0.4163 -0.0445
 2870SOL    HW1 8609   4.615   0.560   3.823 -1.4020  1.4508  0.8976
 2870SOL    HW2 8610   4.711   0.574   3.707 -1.7605 -1.9738  0.0776
 2871SOL     OW 8611   3.497   1.839   4.094  0.2488 -0.0295 -0.1853
 2871SOL    HW1 8612   3.521   1.926   4.062  0.6022 -0.3697 -0.8593
 2871SOL    HW2 8613   3.579   1.800   4.123  0.0243  0.0243  0.5419
 2872SOL     OW 8614   3.595   1.422   4.355 -0.1735 -0.6252 -0.5072
 2872SOL    HW1 8615   3.502   1.435   4.335 -0.2888  2.2745  1.3291
 2872SOL    HW2 8616   3.595   1.384   4.444  0.4031 -0.3905 -0.4077
 2873SOL     OW 8617   2.739   2.917   0.100  0.1978 -0.1891  0.5979
 2873SOL    HW1 8618   2.660   2.878   0.062 -0.8952  1.6013  0.9213
 2873SOL    HW2 8619   2.712   2.949   0.186  1.2058  0.6426  0.6351
 2874SOL     OW 8620   4.556   4.048   0.893 -0.1909  0.1120  0.2564
 2874SOL    HW1 8621   4.502   3.978   0.929 -1.9648  2.5536  2.6839
 2874SOL    HW2 8622   4.499   4.092   0.829  0.5882 -0.0305 -0.5669
 2875SOL     OW 8623   0.395   1.094   3.786  0.3043 -0.0020 -0.3402
 2875SOL    HW1 8624   0.447   1.014   3.796 -1.4957 -1.1376  0.5571
 2875SOL    HW2 8625   0.417   1.147   3.863 -0.4692 -0.8633  0.4962
 2876SOL     OW 8626   4.551   5.707   0.713  0.7603 -0.1657  0.0708
 2876SOL    HW1 8627   4.566   5.665   0.797 -0.4596 -0.7067  0.0292
 2876SOL    HW2 8628   4.595   5.650   0.650  0.7605 -0.3285  0.2181
 2877SOL     OW 8629   3.023   2.625   3.662 -0.5682  0.6462 -0.7469
 2877SOL    HW1 8630   2.994   2.713   3.683  1.3715  0.8100  1.8801
 2877SOL    HW2 8631   3.054   2.630   3.572 -0.2606  2.7329 -0.5751
 2878SOL     OW 8632   1.655   3.448   4.876 -0.3430  0.2889 -0.1463
 2878SOL    HW1 8633   1.585   3.436   4.940 -2.0973  0.8285 -1.8783
 2878SOL    HW2 8634   1.651   3.541   4.854  0.4564  0.1776 -0.7935
 2879SOL     OW 8635   2.656   5.282   1.101 -0.2605  0.3836 -0.2197
 2879SOL    HW1 8636   2.629   5.202   1.146  0.1228  1.1722  1.4970
 2879SOL    HW2 8637   2.750   5.273   1.088  0.0038  1.0502  1.0922
 2880SOL     OW 8638   2.552   5.419   4.789  0.1194  0.1249  0.2110
 2880SOL    HW1 8639   2.587   5.470   4.862  2.0489 -0.4688 -0.2441
 2880SOL    HW2 8640   2.624   5.361   4.763 -0.9045 -0.4902 -1.4184
 2881SOL     OW 8641   1.940   3.570   0.664  0.3515  0.1524  0.2489
 2881SOL    HW1 8642   1.933   3.592   0.571  0.4786 -0.7947  0.0075
 2881SOL    HW2 8643   1.972   3.480   0.665  1.5855  0.5659  1.2202
 2882SOL     OW 8644   1.587   2.099   5.851  0.1433  0.5063 -0.6573
 2882SOL    HW1 8645   1.625   2.030   5.798 -0.8212 -0.3943 -0.2083
 2882SOL    HW2 8646   1.657   2.163   5.862  0.7438  0.0858 -1.9161
 2883SOL     OW 8647   4.778   1.514   0.773  0.5338 -0.4325  0.6612
 2883SOL    HW1 8648   4.856   1.502   0.826 -0.2404 -1.3308  1.6591
 2883SOL    HW2 8649   4.806   1.496   0.684  2.0657  1.9714  0.5738
 2884SOL     OW 8650   2.687   2.647   1.194 -0.2837  0.0771  0.3167
 2884SOL    HW1 8651   2.774   2.687   1.202 -0.0294 -0.4052  0.0737
 2884SOL    HW2 8652   2.699   2.559   1.229 -0.4261 -0.3206 -0.5911
 2885SOL     OW 8653   4.352   4.649   1.094  0.4358  0.6312 -0.1814
 2885SOL    HW1 8654   4.374   4.668   1.185  1.8206  0.2808 -0.4085
 2885SOL    HW2 8655   4.257   4.649   1.091  0.3737  0.8344  1.2247
 2886SOL     OW 8656   2.684   4.980   4.478  0.3434  0.0634 -0.2243
 2886SOL    HW1 8657   2.698   5.066   4.518  1.1008 -0.2527  0.2064
 2886SOL    HW2 8658   2.700   4.918   4.549 -1.2809 -0.4099 -0.2379
 2887SOL     OW 8659   2.428   0.706   2.990  0.3285  0.1388  0.4207
 2887SOL    HW1 8660   2.339   0.671   3.003  1.2700 -1.3869  3.9996
 2887SOL    HW2 8661   2.456   0.669   2.906 -1.4352 -1.7010  0.5612
 2888SOL     OW 8662   5.597   5.716   1.149 -0.1610 -0.3046  0.2621
 2888SOL    HW1 8663   5.537   5.643   1.138 -0.0606 -0.2242 -1.0317
 2888SOL    HW2 8664   5.541   5.790   1.171 -0.8143  0.1391 -2.4713
 2889SOL     OW 8665   3.828   4.269   1.178  0.0512 -0.1755  0.4118
 2889SOL    HW1 8666   3.787   4.272   1.091 -0.4339 -1.6274  0.5663
 2889SOL    HW2 8667   3.755   4.276   1.239  0.1355 -1.3967  0.6858
 2890SOL     OW 8668   0.994   3.174   4.758 -0.4312 -0.1470 -0.5171
 2890SOL    HW1 8669   0.936   3.241   4.793  0.1985 -0.1394  0.5253
 2890SOL    HW2 8670   1.079   3.218   4.748 -0.0964 -0.6937 -0.1240
 2891SOL     OW 8671   1.185   1.870   4.711 -0.1144  0.0685 -0.1019
 2891SOL    HW1 8672   1.200   1.790   4.763 -0.2562  1.3688  2.0849
 2891SOL    HW2 8673   1.265   1.921   4.723 -0.1775  0.4320 -1.1780
 2892SOL     OW 8674   1.889   4.904   0.922 -0.0146 -0.5963  0.0846
 2892SOL    HW1 8675   1.829   4.914   0.849 -1.5579 -0.7605  1.2717
 2892SOL    HW2 8676   1.970   4.871   0.883  0.1699  1.9048 -1.8947
 2893SOL     OW 8677   2.287   0.805   2.252 -0.0594  0.6307  0.3936
 2893SOL    HW1 8678   2.269   0.711   2.257 -0.6651  0.7612  0.9427
 2893SOL    HW2 8679   2.376   0.812   2.218  0.3860 -0.1821  1.3430
 2894SOL     OW 8680   1.273   0.460   1.475 -0.1227 -0.3928 -0.4698
 2894SOL    HW1 8681   1.250   0.460   1.568  0.4088 -0.8431 -0.3374
 2894SOL    HW2 8682   1.341   0.527   1.467  0.8894 -1.3683 -0.2610
 2895SOL     OW 8683   2.383   0.762   5.986  0.0583  0.2557 -0.0335
 2895SOL    HW1 8684   2.398   0.742   5.893  1.0098 -1.1341  0.3843
 2895SOL    HW2 8685   2.446   0.708   6.033 -1.0193  0.2322  1.4826
 2896SOL     OW 8686   2.714   2.047   3.884 -0.0369 -0.2007 -0.2323
 2896SOL    HW1 8687   2.713   2.095   3.801  0.5810 -0.3700 -0.3377
 2896SOL    HW2 8688   2.625   2.059   3.919  0.3134  1.6620  0.1147
 2897SOL     OW 8689   2.295   3.910   1.228 -0.6506  0.3213 -0.1678
 2897SOL    HW1 8690   2.301   3.845   1.158  3.3344 -0.8676  1.0064
 2897SOL    HW2 8691   2.352   3.981   1.199  1.8266 -0.5908  2.0540
 2898SOL     OW 8692   3.304   4.421   5.555  0.2071  0.0475  0.0737
 2898SOL    HW1 8693   3.248   4.353   5.518 -0.0658 -0.2825  1.0840
 2898SOL    HW2 8694   3.378   4.374   5.592  0.3017  0.3428  0.2630
 2899SOL     OW 8695   2.867   3.429   2.694  0.4116  0.1003  0.2287
 2899SOL    HW1 8696   2.791   3.388   2.653  0.3475 -0.4812  0.9004
 2899SOL    HW2 8697   2.920   3.460   2.621 -0.2073  0.0333 -0.2617
 2900SOL     OW 8698   1.622   2.214   1.429  0.3467  0.2309 -0.0161
 2900SOL    HW1 8699   1.618   2.309   1.414  2.9408  0.7489  1.8917
 2900SOL    HW2 8700   1.704   2.188   1.387 -0.4224 -1.2602 -0.6619
 2901SOL     OW 8701   1.376   1.404   5.946 -0.0001 -0.2739 -0.1981
 2901SOL    HW1 8702   1.397   1.311   5.940 -1.3087 -0.5280 -1.1883
 2901SOL    HW2 8703   1.361   1.431   5.856  1.7397  1.2618 -0.0758
 2902SOL     OW 8704   5.188   2.040   1.304 -0.0433 -0.3211 -0.1166
 2902SOL    HW1 8705   5.175   2.125   1.347  0.8935 -0.8409  1.2593
 2902SOL    HW2 8706   5.283   2.032   1.294 -0.1094 -1.2570 -0.1034
 2903SOL     OW 8707   1.659   4.561   0.887  0.1224  0.8469 -0.2158
 2903SOL    HW1 8708   1.634   4.653   0.901  1.5236  1.3284 -0.7073
 2903SOL    HW2 8709   1.748   4.555   0.921 -0.7079 -0.9130  1.8745
 2904SOL     OW 8710   0.286   1.645   1.741  0.1843  0.3099  0.1483
 2904SOL    HW1 8711   0.298   1.573   1.679 -1.0019  0.5763 -0.4048
 2904SOL    HW2 8712   0.209   1.620   1.792 -2.0476  2.4489 -1.9318
 2905SOL     OW 8713   1.706   2.881   1.901  0.3122 -0.5656 -0.3768
 2905SOL    HW1 8714   1.783   2.926   1.867  0.5056  1.0252  1.9494
 2905SOL    HW2 8715   1.741   2.814   1.960 -0.0166  0.7208  1.3530
 2906SOL     OW 8716   5.956   2.184   1.834  0.0620  0.2541 -0.4628
 2906SOL    HW1 8717   6.022   2.122   1.804 -0.2866 -0.1509 -0.4028
 2906SOL    HW2 8718   5.882   2.170   1.776  0.1864  1.0133 -0.8072
 2907SOL     OW 8719   0.275   5.431   4.405 -0.1903  0.5789  0.0354
 2907SOL    HW1 8720   0.280   5.499   4.472 -0.9637  0.4601  0.2286
 2907SOL    HW2 8721   0.241   5.476   4.328 -0.8382  0.3896  0.2058
 2908SOL     OW 8722   1.811   3.674   3.345 -0.9673 -0.3306  0.3967
 2908SOL    HW1 8723   1.732   3.642   3.300 -2.3980 -2.6906  4.1425
 2908SOL    HW2 8724   1.855   3.595   3.375  2.7144  0.9390 -1.0423
 2909SOL     OW 8725   2.291   3.771   4.357 -0.0162  0.5095  0.0379
 2909SOL    HW1 8726   2.364   3.737   4.409  0.5235  0.9824 -0.3980
 2909SOL    HW2 8727   2.314   3.862   4.341 -1.4564  1.1192  1.2238
 2910SOL     OW 8728   0.821   3.403   0.583 -0.0544  0.0379  0.4378
 2910SOL    HW1 8729   0.734   3.440   0.597 -0.7005 -0.6734 -1.3875
 2910SOL    HW2 8730   0.835   3.410   0.488  1.2840 -1.1533  0.5094
 2911SOL     OW 8731   5.465   2.940   1.345  0.3405 -0.1636 -0.0997
 2911SOL    HW1 8732   5.560   2.945   1.350  0.3932 -1.1962  0.1480
 2911SOL    HW2 8733   5.448   2.879   1.273 -0.0892 -1.2657  0.8988
 2912SOL     OW 8734   3.600   0.776   5.939 -0.1693 -0.6178  0.0968
 2912SOL    HW1 8735   3.562   0.697   5.977 -0.2047 -0.1347  1.1060
 2912SOL    HW2 8736   3.683   0.787   5.985  0.0013 -0.2631 -0.2866
 2913SOL     OW 8737   4.518   1.636   1.082  0.4296 -0.0612  0.0411
 2913SOL    HW1 8738   4.478   1.587   1.155  1.7881 -1.4575 -0.0856
 2913SOL    HW2 8739   4.544   1.568   1.020 -1.2477  1.1436 -2.0917
 2914SOL     OW 8740   0.520   5.885   0.598 -0.2025  0.0415 -0.0853
 2914SOL    HW1 8741   0.608   5.868   0.629  0.2166  1.0213 -0.7063
 2914SOL    HW2 8742   0.483   5.946   0.662 -0.4980 -0.4803  0.2552
 2915SOL     OW 8743   2.962   1.357   0.857 -0.3451 -0.2597  0.0654
 2915SOL    HW1 8744   2.995   1.363   0.946 -1.1145  0.2307  0.3230
 2915SOL    HW2 8745   2.971   1.264   0.834  1.7061 -0.0834 -0.0845
 2916SOL     OW 8746   1.558   4.230   4.822  0.0734  0.0719  0.4885
 2916SOL    HW1 8747   1.527   4.274   4.743 -0.3596 -0.0068  0.6082
 2916SOL    HW2 8748   1.653   4.228   4.813  0.1295  1.2492  0.5944
 2917SOL     OW 8749   1.356   1.707   4.355  0.1275  0.8884 -0.0382
 2917SOL    HW1 8750   1.420   1.738   4.291  1.6281 -1.3540  0.2615
 2917SOL    HW2 8751   1.320   1.628   4.315  1.3395 -0.7466  1.9133
 2918SOL     OW 8752   1.510   1.902   0.091  1.0269 -0.3831  0.2459
 2918SOL    HW1 8753   1.536   1.949   0.012  0.5402  0.4412  0.5716
 2918SOL    HW2 8754   1.474   1.819   0.058 -0.4374  0.5042 -0.5125
 2919SOL     OW 8755   3.631   2.310   2.307  0.0911  0.3179  0.3755
 2919SOL    HW1 8756   3.704   2.270   2.259 -0.0613  0.1010  0.3248
 2919SOL    HW2 8757   3.654   2.299   2.399  0.0159  0.0558  0.3617
 2920SOL     OW 8758   1.352   3.759   5.170 -0.1891  0.6486  0.2745
 2920SOL    HW1 8759   1.421   3.723   5.225  0.0748  1.1067  0.2494
 2920SOL    HW2 8760   1.394   3.829   5.121 -0.3653  0.0836 -0.6936
 2921SOL     OW 8761   2.146   5.059   0.258 -0.5365 -0.5624  0.2651
 2921SOL    HW1 8762   2.188   4.973   0.263 -0.9357 -0.8441 -0.8681
 2921SOL    HW2 8763   2.214   5.115   0.220 -0.7547 -0.7347 -0.4016
 2922SOL     OW 8764   2.942   1.758   1.276 -0.0366  0.4298 -0.2693
 2922SOL    HW1 8765   2.903   1.806   1.349 -0.3294  1.2871 -0.9764
 2922SOL    HW2 8766   2.868   1.711   1.236 -0.1040  0.8903 -0.7098
 2923SOL     OW 8767   1.316   1.146   2.545  0.3210 -0.0188 -0.0628
 2923SOL    HW1 8768   1.266   1.065   2.560 -0.1377 -0.7432 -4.3570
 2923SOL    HW2 8769   1.252   1.216   2.559 -0.4733 -0.6405 -0.5112
 2924SOL     OW 8770   2.052   2.410   0.227 -1.1483  1.0143  0.1821
 2924SOL    HW1 8771   1.968   2.374   0.198  0.2785 -1.9178 -0.6427
 2924SOL    HW2 8772   2.100   2.425   0.146  0.6414 -1.4545  0.6780
 2925SOL     OW 8773   1.932   3.671   2.881 -0.0369  0.0861 -0.2906
 2925SOL    HW1 8774   1.940   3.576   2.891  0.9959  0.2481  0.5689
 2925SOL    HW2 8775   1.922   3.684   2.786  0.1190 -0.8558 -0.4487
 2926SOL     OW 8776   3.005   2.519   4.671 -0.0917  0.0200 -0.1158
 2926SOL    HW1 8777   2.955   2.472   4.738 -2.3231 -0.3210 -1.8860
 2926SOL    HW2 8778   3.024   2.452   4.605  1.4472  0.4899 -0.1864
 2927SOL     OW 8779   3.524   3.993   5.168 -0.8635  0.3672  0.2453
 2927SOL    HW1 8780   3.549   3.903   5.150 -0.7570  0.2699  0.8613
 2927SOL    HW2 8781   3.559   4.043   5.095 -0.0847  0.0406  0.3904
 2928SOL     OW 8782   3.479   3.550   3.620 -0.0070  0.2551  0.5785
 2928SOL    HW1 8783   3.462   3.482   3.555  0.1277 -0.1018  0.9141
 2928SOL    HW2 8784   3.458   3.632   3.575 -2.6875 -0.1422  0.9766
 2929SOL     OW 8785   2.700   2.427   5.096 -0.2454  0.2560 -0.1905
 2929SOL    HW1 8786   2.617   2.435   5.049 -0.9033 -0.5662  0.7846
 2929SOL    HW2 8787   2.690   2.486   5.172 -0.2488 -0.4208  0.3420
 2930SOL     OW 8788   4.758   2.107   5.393 -0.8810 -0.3931  0.0198
 2930SOL    HW1 8789   4.852   2.090   5.398 -1.1831 -1.7795  1.7774
 2930SOL    HW2 8790   4.739   2.110   5.299  0.4348 -3.0101 -0.3964
 2931SOL     OW 8791   3.959   2.566   3.754 -0.2303 -0.0083  0.1703
 2931SOL    HW1 8792   3.889   2.510   3.787 -0.6629  0.2630 -0.2673
 2931SOL    HW2 8793   3.918   2.617   3.685  1.0879 -1.8749 -2.1193
 2932SOL     OW 8794   2.347   2.879   0.880  0.2498  0.5076  0.7798
 2932SOL    HW1 8795   2.334   2.797   0.831 -0.0833  1.8330 -1.4973
 2932SOL    HW2 8796   2.412   2.857   0.946  1.0063 -1.3394 -0.4823
 2933SOL     OW 8797   3.219   5.587   5.013 -0.2272 -0.5139  0.4313
 2933SOL    HW1 8798   3.298   5.569   5.065  0.6695  0.4847 -0.5144
 2933SOL    HW2 8799   3.201   5.680   5.028 -0.9110 -0.6082  0.2203
 2934SOL     OW 8800   4.544   1.828   3.740 -0.0442  0.0141  0.9623
 2934SOL    HW1 8801   4.541   1.775   3.660  3.4744  0.1851  0.5388
 2934SOL    HW2 8802   4.519   1.916   3.712 -1.1485 -0.4071  0.5944
 2935SOL     OW 8803   3.875   3.982   2.033  0.1533 -0.2671  0.0169
 2935SOL    HW1 8804   3.946   3.985   2.098  0.2084  0.9016 -0.0623
 2935SOL    HW2 8805   3.827   4.063   2.048 -0.7402 -0.7111 -0.4126
 2936SOL     OW 8806   0.450   1.693   4.796 -0.8397 -0.0644  0.3720
 2936SOL    HW1 8807   0.436   1.626   4.862 -0.6018 -0.7235 -0.2350
 2936SOL    HW2 8808   0.504   1.759   4.839 -0.9723 -0.3191  0.9321
 2937SOL     OW 8809   2.146   2.237   4.373 -0.0712 -0.8388 -0.1596
 2937SOL    HW1 8810   2.208   2.164   4.371  1.2064  0.1555  1.0127
 2937SOL    HW2 8811   2.175   2.291   4.447 -1.1095  0.7558 -0.8636
 2938SOL     OW 8812   1.252   0.528   2.794  0.0602  0.5777 -0.3659
 2938SOL    HW1 8813   1.240   0.439   2.826 -0.4797  0.8139  0.1157
 2938SOL    HW2 8814   1.262   0.519   2.700 -0.8529  0.0801 -0.4250
 2939SOL     OW 8815   5.152   2.170   5.986  0.3976 -0.2037 -0.7678
 2939SOL    HW1 8816   5.118   2.216   5.909  0.2643 -0.5622 -0.9255
 2939SOL    HW2 8817   5.106   2.086   5.986  1.0872 -0.5916 -0.8307
 2940SOL     OW 8818   3.653   4.777   2.614 -0.4744 -0.6533 -0.5328
 2940SOL    HW1 8819   3.615   4.853   2.569 -0.8115 -1.8457 -2.3774
 2940SOL    HW2 8820   3.591   4.706   2.596  1.0353 -1.9172 -0.9511
 2941SOL     OW 8821   0.997   3.290   1.345 -0.1653  0.0351  0.3856
 2941SOL    HW1 8822   0.905   3.276   1.367 -0.2740 -0.6088 -0.4252
 2941SOL    HW2 8823   1.044   3.265   1.425 -0.5588 -2.1423  0.0211
 2942SOL     OW 8824   3.444   2.481   5.158  0.2639  0.2594  0.1048
 2942SOL    HW1 8825   3.434   2.436   5.242  2.1458  0.5924  0.5658
 2942SOL    HW2 8826   3.359   2.472   5.115 -0.0962 -1.8333  1.0990
 2943SOL     OW 8827   2.302   2.223   0.839 -0.3419 -0.0374  0.5798
 2943SOL    HW1 8828   2.290   2.318   0.844  0.6437  0.0881  0.7476
 2943SOL    HW2 8829   2.251   2.189   0.913 -0.1116  0.4225  0.9588
 2944SOL     OW 8830   2.080   3.388   2.659 -0.1958  0.0542  0.3781
 2944SOL    HW1 8831   2.046   3.304   2.627 -0.6462  0.4107 -0.0957
 2944SOL    HW2 8832   2.059   3.450   2.589 -0.3253  0.6652  0.9570
 2945SOL     OW 8833   2.781   2.897   0.859  0.1354  0.1044  0.3349
 2945SOL    HW1 8834   2.795   2.985   0.824 -0.4200 -0.0079 -0.1901
 2945SOL    HW2 8835   2.686   2.890   0.869  0.0077 -1.0746 -1.3600
 2946SOL     OW 8836   2.535   3.756   2.892 -0.3750  0.1148  0.4126
 2946SOL    HW1 8837   2.468   3.735   2.828  0.8512  0.0883 -0.9207
 2946SOL    HW2 8838   2.616   3.765   2.841  1.1208 -2.0730  2.1829
 2947SOL     OW 8839   1.599   3.194   0.643  0.1493  0.8682  0.0925
 2947SOL    HW1 8840   1.600   3.145   0.561 -0.5933 -0.5826  0.9183
 2947SOL    HW2 8841   1.579   3.284   0.617 -0.5672  0.3449 -1.2698
 2948SOL     OW 8842   3.530   5.649   3.030 -0.4654 -0.3403  0.3130
 2948SOL    HW1 8843   3.445   5.685   3.056 -0.9298 -0.8135 -0.5147
 2948SOL    HW2 8844   3.519   5.554   3.039  0.5197 -0.3486  1.8037
 2949SOL     OW 8845   2.659   3.475   1.766 -0.1594 -0.2012  0.7279
 2949SOL    HW1 8846   2.682   3.473   1.859  0.5756 -1.0929  0.5379
 2949SOL    HW2 8847   2.598   3.549   1.758  0.8523  0.7634  1.6648
 2950SOL     OW 8848   2.222   3.696   4.905 -0.0247  0.5825 -0.4705
 2950SOL    HW1 8849   2.172   3.621   4.937 -0.4869 -0.2101 -2.8692
 2950SOL    HW2 8850   2.170   3.730   4.832  1.3892  1.7146 -1.0001
 2951SOL     OW 8851   0.364   3.825   1.306 -0.4947 -0.0671 -0.0530
 2951SOL    HW1 8852   0.426   3.895   1.285 -1.8160  0.7152 -1.5739
 2951SOL    HW2 8853   0.282   3.871   1.328 -0.6662 -1.0785  1.6317
 2952SOL     OW 8854   3.585   2.044   4.606 -0.1622  0.0479  0.0987
 2952SOL    HW1 8855   3.621   2.132   4.600  0.6554 -0.2459  0.5917
 2952SOL    HW2 8856   3.627   2.005   4.683 -0.1809 -0.9196 -0.3609
 2953SOL     OW 8857   2.981   4.326   0.570  0.0714  0.2585 -0.2432
 2953SOL    HW1 8858   2.908   4.325   0.508 -0.1513  1.8782 -0.0428
 2953SOL    HW2 8859   2.976   4.241   0.613 -2.4249  0.7177  0.5694
 2954SOL     OW 8860   5.490   2.609   5.980 -0.0637 -0.0659 -0.2204
 2954SOL    HW1 8861   5.541   2.637   5.904 -1.2072 -0.1767 -1.0444
 2954SOL    HW2 8862   5.467   2.518   5.961 -3.2495  0.8713 -1.4118
 2955SOL     OW 8863   3.889   2.158   0.844  0.0903  0.1847 -0.2198
 2955SOL    HW1 8864   3.946   2.228   0.877 -2.1612  1.0782  2.1550
 2955SOL    HW2 8865   3.836   2.201   0.776 -0.7338  0.6135  0.6712
 2956SOL     OW 8866   4.199   5.466   1.945 -0.4226  0.5273  0.1940
 2956SOL    HW1 8867   4.247   5.513   1.877 -0.8556  1.7474  0.7017
 2956SOL    HW2 8868   4.133   5.528   1.975 -1.8624 -0.8293  0.0323
 2957SOL     OW 8869   2.067   1.176   4.792 -0.2080  0.3717 -0.2073
 2957SOL    HW1 8870   1.981   1.145   4.819  0.1904  1.3283  2.5244
 2957SOL    HW2 8871   2.056   1.270   4.776  0.3399  0.5696  0.4786
 2958SOL     OW 8872   5.987   0.704   1.462  0.1994  0.1569  0.4017
 2958SOL    HW1 8873   5.981   0.791   1.423  1.1583  0.1440  0.1974
 2958SOL    HW2 8874   5.901   0.665   1.447  0.4285  0.2800 -1.4296
 2959SOL     OW 8875   4.914   4.215   4.673 -0.2492 -0.3199  0.3576
 2959SOL    HW1 8876   4.925   4.281   4.741 -2.5905  1.0217 -0.4723
 2959SOL    HW2 8877   4.972   4.243   4.603 -1.4848  1.1230 -0.1318
 2960SOL     OW 8878   1.822   5.000   1.634  0.0884 -0.1629  0.0186
 2960SOL    HW1 8879   1.845   4.910   1.612 -0.0392 -0.3993  0.8460
 2960SOL    HW2 8880   1.894   5.031   1.689  0.3309  0.3779 -0.5879
 2961SOL     OW 8881   1.923   3.070   1.546  0.1192  0.3469 -0.2523
 2961SOL    HW1 8882   1.869   2.999   1.510 -1.1029  0.3848  1.3807
 2961SOL    HW2 8883   1.968   3.029   1.620 -1.7555  1.5407  1.6717
 2962SOL     OW 8884   3.000   3.619   1.463  0.2086 -0.4393  0.3936
 2962SOL    HW1 8885   2.989   3.714   1.453  1.1176 -0.0626  2.4257
 2962SOL    HW2 8886   3.078   3.598   1.411 -0.6291 -0.3175 -0.9762
 2963SOL     OW 8887   2.547   2.462   0.940 -0.4680 -0.0664  0.4941
 2963SOL    HW1 8888   2.575   2.372   0.923 -0.9115 -0.1223  0.0443
 2963SOL    HW2 8889   2.627   2.508   0.966  0.6643  0.3869 -3.1453
 2964SOL     OW 8890   3.569   4.011   1.049 -0.4486  0.0417  0.0233
 2964SOL    HW1 8891   3.621   4.015   1.129  3.0091  0.7137 -2.0439
 2964SOL    HW2 8892   3.578   3.920   1.020  1.8882  0.6957 -1.6003
 2965SOL     OW 8893   1.857   2.334   4.628 -0.5525  0.1061  0.4360
 2965SOL    HW1 8894   1.876   2.252   4.582  2.1390  0.0917  1.4027
 2965SOL    HW2 8895   1.821   2.392   4.561 -2.1136 -1.6794 -0.3641
 2966SOL     OW 8896   3.662   4.172   4.198  0.2411  0.1286 -0.8194
 2966SOL    HW1 8897   3.695   4.097   4.246 -0.7548  0.2771  0.1459
 2966SOL    HW2 8898   3.734   4.235   4.198  0.7096 -0.4042 -0.7072
 2967SOL     OW 8899   1.827   2.745   5.159  0.2646  0.5030  0.1363
 2967SOL    HW1 8900   1.791   2.673   5.210 -0.0742  1.4078  1.1979
 2967SOL    HW2 8901   1.783   2.738   5.074  0.2189 -0.5093  0.2265
 2968SOL     OW 8902   2.259   1.883   4.159 -0.1402 -0.2723 -0.2360
 2968SOL    HW1 8903   2.296   1.905   4.244  0.6107  1.5091 -0.9697
 2968SOL    HW2 8904   2.320   1.821   4.121  0.7747  0.7025 -0.3967
 2969SOL     OW 8905   2.140   3.525   2.419 -0.2748  0.1940 -0.0052
 2969SOL    HW1 8906   2.224   3.485   2.399  0.0661  0.3995  0.9806
 2969SOL    HW2 8907   2.084   3.501   2.344  0.2638 -1.0701 -0.0301
 2970SOL     OW 8908   2.460   2.743   2.385 -0.3491  0.2130 -0.5314
 2970SOL    HW1 8909   2.435   2.807   2.318 -0.6082  0.0376 -0.6051
 2970SOL    HW2 8910   2.412   2.770   2.463  1.8164  1.8768  0.3175
 2971SOL     OW 8911   5.021   5.132   0.928  0.8278 -0.1667  0.1478
 2971SOL    HW1 8912   5.018   5.223   0.899  0.0073  0.6177  2.4456
 2971SOL    HW2 8913   5.110   5.104   0.908  2.5962  2.5772  3.1287
 2972SOL     OW 8914   2.438   3.572   1.063  0.3300 -0.5774  0.3687
 2972SOL    HW1 8915   2.343   3.558   1.054  0.3527 -0.3440 -0.2405
 2972SOL    HW2 8916   2.472   3.564   0.974  0.9449 -1.0931  0.6441
 2973SOL     OW 8917   1.921   3.899   4.387 -0.5163 -0.4563  0.2605
 2973SOL    HW1 8918   1.889   3.828   4.332 -0.4654  0.2441 -0.7058
 2973SOL    HW2 8919   1.934   3.973   4.326 -0.3270  0.2989  1.1875
 2974SOL     OW 8920   1.722   3.953   2.119  0.6995  0.2095  0.0312
 2974SOL    HW1 8921   1.765   3.873   2.149  0.6930  0.0169 -0.4578
 2974SOL    HW2 8922   1.693   3.932   2.030  0.7020  0.7607 -0.0996
 2975SOL     OW 8923   4.119   1.785   5.140 -0.6608 -0.0649 -0.5483
 2975SOL    HW1 8924   4.127   1.698   5.100  1.0535  0.2478 -0.9453
 2975SOL    HW2 8925   4.125   1.846   5.067 -1.1208  0.4200 -0.1878
 2976SOL     OW 8926   2.337   0.461   0.614 -0.4606  0.8746  0.7805
 2976SOL    HW1 8927   2.274   0.474   0.543  0.3010  1.1627  0.1494
 2976SOL    HW2 8928   2.356   0.549   0.647  1.5416  1.0761 -0.7457
 2977SOL     OW 8929   2.743   0.046   2.110 -0.0301 -0.4029 -0.5583
 2977SOL    HW1 8930   2.757   0.067   2.018 -0.2161 -1.7123 -0.9040
 2977SOL    HW2 8931   2.819  -0.008   2.135 -0.5007 -0.9431 -0.2531
 2978SOL     OW 8932   3.449   2.184   0.876  0.2202 -0.2486 -0.3234
 2978SOL    HW1 8933   3.448   2.183   0.780  1.6071  0.5007 -0.3637
 2978SOL    HW2 8934   3.533   2.223   0.899  0.6313 -1.9140  1.2234
 2979SOL     OW 8935   4.536   2.550   1.569 -0.2487 -0.5177  0.3077
 2979SOL    HW1 8936   4.628   2.573   1.557 -0.4347  0.1117  0.0820
 2979SOL    HW2 8937   4.489   2.606   1.508 -0.9262  0.3921  1.6214
 2980SOL     OW 8938   1.315   4.906   4.805  0.0550 -0.6999  0.2004
 2980SOL    HW1 8939   1.263   4.982   4.781 -0.0827 -0.9140 -0.1993
 2980SOL    HW2 8940   1.307   4.847   4.730  0.2668 -1.0510  0.4484
 2981SOL     OW 8941   3.465   3.271   5.890  0.3515  0.4742  0.0741
 2981SOL    HW1 8942   3.512   3.257   5.807  2.3107 -1.1692  1.3661
 2981SOL    HW2 8943   3.503   3.352   5.925  0.6545  0.3194  0.1030
 2982SOL     OW 8944   4.831   5.254   4.331 -0.1829 -0.2507 -0.0449
 2982SOL    HW1 8945   4.753   5.267   4.385  1.1087 -2.1984  2.5209
 2982SOL    HW2 8946   4.814   5.172   4.284  0.2001 -0.5370  0.3136
 2983SOL     OW 8947   4.011   1.959   0.669  0.2441 -0.2066 -0.6951
 2983SOL    HW1 8948   4.024   1.872   0.707 -0.7512 -0.4202 -0.8331
 2983SOL    HW2 8949   3.968   2.010   0.737  0.3876  0.0409 -0.7872
 2984SOL     OW 8950   2.734   4.195   2.577 -0.0779  0.3908 -0.0754
 2984SOL    HW1 8951   2.775   4.141   2.510 -0.0488 -0.5525  0.6842
 2984SOL    HW2 8952   2.697   4.269   2.529  0.1213 -0.1579 -1.0967
 2985SOL     OW 8953   3.632   3.001   2.667 -0.5129  0.3669 -0.1976
 2985SOL    HW1 8954   3.686   2.932   2.628  0.6874  1.2151 -0.0659
 2985SOL    HW2 8955   3.543   2.965   2.664  0.3531 -2.4953  2.5590
 2986SOL     OW 8956   3.773   3.470   2.234 -0.3921  0.5190 -0.4723
 2986SOL    HW1 8957   3.720   3.493   2.310 -1.3857  0.1132 -1.0216
 2986SOL    HW2 8958   3.796   3.553   2.195 -1.8502  0.6890 -1.0346
 2987SOL     OW 8959   1.380   4.085   0.336 -0.5675  0.1240 -0.4827
 2987SOL    HW1 8960   1.466   4.055   0.308  0.3501  1.4820  0.7652
 2987SOL    HW2 8961   1.357   4.028   0.410 -0.2448  0.4516 -0.1268
 2988SOL     OW 8962   2.590   0.614   0.144  0.4440 -0.3275  0.2793
 2988SOL    HW1 8963   2.584   0.585   0.236 -0.0139 -1.3198 -0.0499
 2988SOL    HW2 8964   2.679   0.647   0.136  0.8092 -1.1242  0.8422
 2989SOL     OW 8965   2.430   2.338   5.207 -0.2113 -0.3813 -0.1766
 2989SOL    HW1 8966   2.493   2.286   5.156 -0.5704  1.1005 -2.2999
 2989SOL    HW2 8967   2.479   2.364   5.285  0.3677 -2.7835  0.3307
 2990SOL     OW 8968   4.335   5.311   4.607  0.1303  0.0621 -0.1979
 2990SOL    HW1 8969   4.268   5.352   4.662 -1.4646  0.0526 -2.0085
 2990SOL    HW2 8970   4.291   5.236   4.567  0.8766  0.6040 -2.1921
 2991SOL     OW 8971   5.963   5.329   4.110 -0.2923  0.0096  0.1092
 2991SOL    HW1 8972   5.998   5.327   4.199 -0.1095 -0.0410  0.0370
 2991SOL    HW2 8973   6.019   5.269   4.061 -0.3843  0.0473 -0.0423
 2992SOL     OW 8974   2.691   3.856   2.125 -0.2606 -0.0493 -0.0306
 2992SOL    HW1 8975   2.744   3.912   2.069 -0.1562  1.4892  1.5216
 2992SOL    HW2 8976   2.670   3.780   2.071  2.1934  0.0275 -1.2084
 2993SOL     OW 8977   0.753   5.103   5.690  0.3435  0.0729 -0.7680
 2993SOL    HW1 8978   0.768   5.197   5.683 -0.6883  0.2130 -1.2217
 2993SOL    HW2 8979   0.841   5.065   5.688  0.8061  1.0526  0.0300
 2994SOL     OW 8980   5.675   3.277   2.422 -0.2835 -0.0979 -0.3312
 2994SOL    HW1 8981   5.747   3.341   2.425  0.1943 -0.5936 -1.0671
 2994SOL    HW2 8982   5.718   3.194   2.402 -0.9006 -0.6656  0.6002
 2995SOL     OW 8983   4.315   3.362   2.820  0.3546  0.2994 -0.3993
 2995SOL    HW1 8984   4.237   3.380   2.871  1.2599  2.7224  0.2857
 2995SOL    HW2 8985   4.286   3.368   2.729 -0.2556  1.4570 -0.1590
 2996SOL     OW 8986   2.156   2.573   5.351 -0.5807  0.0961  0.4579
 2996SOL    HW1 8987   2.175   2.578   5.257 -0.5832 -0.6275  0.4135
 2996SOL    HW2 8988   2.148   2.479   5.369 -1.5941  0.2752  0.9863
 2997SOL     OW 8989   3.359   4.721   3.616  0.3632  0.2956 -0.0329
 2997SOL    HW1 8990   3.404   4.639   3.597 -0.3203 -0.4653  1.4341
 2997SOL    HW2 8991   3.275   4.714   3.570  0.1976  0.0468  0.3026
 2998SOL     OW 8992   3.782   2.785   2.620  0.5847  0.1314  0.2572
 2998SOL    HW1 8993   3.773   2.779   2.716 -0.7166 -0.3551  0.1296
 2998SOL    HW2 8994   3.771   2.695   2.589 -1.4790  0.5890 -0.4909
 2999SOL     OW 8995   3.613   0.199   5.808  0.6492  0.2861 -0.2414
 2999SOL    HW1 8996   3.566   0.179   5.727  0.4722 -1.8297  0.3167
 2999SOL    HW2 8997   3.690   0.142   5.806  1.5026  1.3721  0.3612
 3000SOL     OW 8998   5.741   5.027   3.619  0.2297  0.0137  0.5085
 3000SOL    HW1 8999   5.645   5.035   3.621  0.1765 -0.6127  0.6240
 3000SOL    HW2 9000   5.769   5.093   3.555 -0.0860  1.8433  2.1536
 3001SOL     OW 9001   1.960   3.164   2.562 -0.0344 -0.0129  0.2178
 3001SOL    HW1 9002   1.960   3.199   2.473 -0.4688 -2.1391 -0.6766
 3001SOL    HW2 9003   1.959   3.069   2.550 -1.6873 -0.3499  2.4944
 3002SOL     OW 9004   3.689   2.571   2.345 -0.4546 -0.1290 -0.4639
 3002SOL    HW1 9005   3.669   2.483   2.312  2.5700 -1.0640 -0.1560
 3002SOL    HW2 9006   3.670   2.566   2.438 -1.4011 -0.0564 -0.6444
 3003SOL     OW 9007   1.637   4.381   1.645 -0.2754  0.0240 -0.2170
 3003SOL    HW1 9008   1.567   4.323   1.614 -0.7473  0.5191 -0.0867
 3003SOL    HW2 9009   1.613   4.403   1.735 -0.7538  1.3873 -0.6489
 3004SOL     OW 9010   1.130   2.349   1.601 -0.3850  0.0689  0.2473
 3004SOL    HW1 9011   1.112   2.351   1.695 -0.4311 -0.4579  0.2483
 3004SOL    HW2 9012   1.151   2.440   1.579 -3.3548  0.8291  0.1726
 3005SOL     OW 9013   1.079   3.294   5.043 -0.1502 -0.4115 -0.4064
 3005SOL    HW1 9014   1.145   3.226   5.027 -0.6516 -0.9762 -0.1422
 3005SOL    HW2 9015   1.125   3.376   5.029  1.0880 -0.7187  1.3986
 3006SOL     OW 9016   3.194   3.133   0.976  0.1047 -0.0835  0.3486
 3006SOL    HW1 9017   3.217   3.194   0.907  2.5755  0.1942  1.3056
 3006SOL    HW2 9018   3.161   3.056   0.931  0.0151  0.7428 -1.0335
 3007SOL     OW 9019   3.603   3.042   0.078 -0.3394 -0.3524 -0.5856
 3007SOL    HW1 9020   3.616   2.974   0.011  0.6217 -0.1791 -0.5787
 3007SOL    HW2 9021   3.625   3.124   0.033  1.7148 -0.3539  0.3032
 3008SOL     OW 9022   1.661   0.839   1.820 -0.0981  0.1207  0.3739
 3008SOL    HW1 9023   1.613   0.756   1.812 -0.9752  0.7113 -1.0041
 3008SOL    HW2 9024   1.706   0.848   1.736 -0.8486  1.5213  0.0953
 3009SOL     OW 9025   2.823   4.039   0.511 -0.0528  0.2607  0.0880
 3009SOL    HW1 9026   2.739   3.997   0.527 -0.0031 -0.4574 -1.3527
 3009SOL    HW2 9027   2.871   4.030   0.593 -1.3313  0.6219  0.9096
 3010SOL     OW 9028   1.387   3.468   1.269  0.3405 -0.1416 -0.0203
 3010SOL    HW1 9029   1.378   3.381   1.308  2.3996 -0.5516 -0.3046
 3010SOL    HW2 9030   1.461   3.459   1.208 -0.8341  1.2663 -1.7274
 3011SOL     OW 9031   5.322   4.041   1.024 -0.4030 -0.0641  0.2900
 3011SOL    HW1 9032   5.376   4.038   0.945  0.2604  4.0308  0.3428
 3011SOL    HW2 9033   5.234   4.061   0.992 -0.2093  1.2073  0.4829
 3012SOL     OW 9034   5.818   2.187   3.965 -0.4939 -0.9079 -0.2266
 3012SOL    HW1 9035   5.742   2.185   3.907  0.1495 -0.2496 -1.1213
 3012SOL    HW2 9036   5.879   2.123   3.927  1.3212  1.8576 -2.3235
 3013SOL     OW 9037   5.186   2.308   0.793 -0.2112  0.1877 -0.2068
 3013SOL    HW1 9038   5.167   2.215   0.804  1.6455 -0.2061 -0.1408
 3013SOL    HW2 9039   5.241   2.313   0.715 -0.8116  1.3252 -0.5990
 3014SOL     OW 9040   3.824   4.493   4.399 -0.5603  0.5395  0.2738
 3014SOL    HW1 9041   3.872   4.549   4.338 -1.1915 -0.9142 -1.6674
 3014SOL    HW2 9042   3.868   4.505   4.483 -0.0918  3.1717 -0.2598
 3015SOL     OW 9043   0.395   2.854   4.206  0.1981  0.1202 -0.4423
 3015SOL    HW1 9044   0.424   2.851   4.115 -3.5548 -0.0825 -1.8326
 3015SOL    HW2 9045   0.349   2.938   4.213 -0.5232 -0.3708  0.9039
 3016SOL     OW 9046   2.730   3.282   0.512  0.0562 -0.3877  1.0238
 3016SOL    HW1 9047   2.744   3.307   0.421  0.3583 -1.3583  0.7883
 3016SOL    HW2 9048   2.741   3.363   0.562  2.1076 -0.2578  0.4151
 3017SOL     OW 9049   1.159   2.052   1.638 -0.0690 -0.7515 -0.2234
 3017SOL    HW1 9050   1.119   2.135   1.611  0.2191  0.0511  1.6006
 3017SOL    HW2 9051   1.168   2.061   1.733  1.7541 -2.0792 -0.2219
 3018SOL     OW 9052   3.648   5.990   1.712  0.0321  0.4689  0.4961
 3018SOL    HW1 9053   3.567   5.944   1.735  0.4113 -0.0377  0.8455
 3018SOL    HW2 9054   3.660   6.053   1.783  0.4012 -0.0578  0.9103
 3019SOL     OW 9055   2.440   2.859   0.461 -0.2701 -0.8726  0.1020
 3019SOL    HW1 9056   2.351   2.825   0.455 -0.5696 -0.4898  1.8429
 3019SOL    HW2 9057   2.495   2.781   0.470 -0.2402 -1.1922 -2.2542
 3020SOL     OW 9058   5.104   5.678   0.863  0.1993 -0.7054  0.8929
 3020SOL    HW1 9059   5.053   5.698   0.941  1.9856 -0.4781  2.0584
 3020SOL    HW2 9060   5.190   5.717   0.880  0.4519 -0.0849 -1.4712
 3021SOL     OW 9061   0.381   3.631   4.790 -0.9995  0.2380  0.6230
 3021SOL    HW1 9062   0.291   3.601   4.800 -0.9112 -0.6107 -0.8745
 3021SOL    HW2 9063   0.425   3.559   4.744  0.9900 -0.2990  3.1259
 3022SOL     OW 9064   4.495   3.055   4.522  0.6001  0.1000 -0.0309
 3022SOL    HW1 9065   4.556   3.128   4.512  0.9136 -0.2546 -0.7509
 3022SOL    HW2 9066   4.417   3.094   4.563  0.3385  1.0512 -1.3757
 3023SOL     OW 9067   2.924   2.880   5.702 -0.4652 -0.0756  0.1056
 3023SOL    HW1 9068   3.017   2.891   5.681 -0.4354  0.2855  0.4129
 3023SOL    HW2 9069   2.894   2.969   5.723 -1.1381 -0.0136 -1.0436
 3024SOL     OW 9070   4.771   1.377   2.446  0.0772 -0.1888  0.2535
 3024SOL    HW1 9071   4.832   1.448   2.428 -0.7755  0.6853  0.7070
 3024SOL    HW2 9072   4.762   1.376   2.541  1.3319 -2.0103  0.4143
 3025SOL     OW 9073   2.663   3.709   2.342  0.0972  0.1718  0.3097
 3025SOL    HW1 9074   2.674   3.769   2.269  1.6316  0.1967  0.5291
 3025SOL    HW2 9075   2.723   3.637   2.323 -1.1430 -0.9362  0.4348
 3026SOL     OW 9076   1.918   3.704   2.590  0.0648 -0.1845  0.3771
 3026SOL    HW1 9077   1.829   3.717   2.557  0.2342 -2.0859 -0.9786
 3026SOL    HW2 9078   1.974   3.714   2.513  1.3515  3.1066  1.5458
 3027SOL     OW 9079   3.257   2.097   1.415 -0.6433 -0.0886 -0.5916
 3027SOL    HW1 9080   3.339   2.079   1.461 -2.3261 -0.8182  2.3833
 3027SOL    HW2 9081   3.249   2.025   1.351 -0.3289 -1.7490  1.1398
 3028SOL     OW 9082   5.777   3.772   5.797  0.6943 -0.1593  0.3089
 3028SOL    HW1 9083   5.791   3.788   5.704 -2.1492  0.5916 -0.0667
 3028SOL    HW2 9084   5.839   3.830   5.841  0.6216  1.0521 -1.1221
 3029SOL     OW 9085   0.699   0.784   1.276 -0.4179  0.2716  0.7430
 3029SOL    HW1 9086   0.673   0.704   1.231  1.1457  1.4326 -2.4985
 3029SOL    HW2 9087   0.628   0.845   1.260 -0.6996  0.1376  1.4730
 3030SOL     OW 9088   2.931   4.273   1.511 -0.0490 -0.4625 -0.1772
 3030SOL    HW1 9089   2.888   4.190   1.532 -0.7134 -0.5266 -1.6300
 3030SOL    HW2 9090   2.865   4.340   1.531  0.2761 -0.3178  0.4366
 3031SOL     OW 9091   2.631   3.410   0.856 -0.5663 -1.1146 -0.7310
 3031SOL    HW1 9092   2.694   3.422   0.785 -0.4903 -2.0841 -0.8499
 3031SOL    HW2 9093   2.548   3.393   0.811 -0.6915 -0.9044 -0.5811
 3032SOL     OW 9094   5.889   1.323   2.107 -0.3471  0.2486 -0.2026
 3032SOL    HW1 9095   5.805   1.288   2.136 -1.1822  0.9417 -1.6497
 3032SOL    HW2 9096   5.934   1.249   2.067 -0.6691  0.0702 -0.2387
 3033SOL     OW 9097   5.964   3.891   2.382  0.3611 -0.0864 -0.6772
 3033SOL    HW1 9098   5.948   3.893   2.477 -2.8632 -0.6946 -1.1109
 3033SOL    HW2 9099   6.030   3.959   2.368  0.1225  0.7948  1.8551
 3034SOL     OW 9100   2.375   3.384   1.826 -0.6839 -0.0310 -0.4681
 3034SOL    HW1 9101   2.365   3.289   1.813  2.2737 -0.3277 -1.3617
 3034SOL    HW2 9102   2.363   3.421   1.739  1.1890  0.0104 -0.7549
 3035SOL     OW 9103   4.145   3.016   2.581 -0.2056 -0.3013  0.1050
 3035SOL    HW1 9104   4.086   2.955   2.538  0.4793 -0.6425 -0.3697
 3035SOL    HW2 9105   4.109   3.103   2.560 -0.3854 -0.4939 -0.4029
 3036SOL     OW 9106   3.645   2.935   4.773 -0.2608 -0.3596 -0.5377
 3036SOL    HW1 9107   3.560   2.913   4.813  0.9046 -2.4225  1.0573
 3036SOL    HW2 9108   3.628   2.933   4.679 -1.9949 -0.6960 -0.2639
 3037SOL     OW 9109   5.884   3.447   5.849 -0.0242 -0.7606  0.8118
 3037SOL    HW1 9110   5.945   3.411   5.785 -0.9048 -1.3459  0.2826
 3037SOL    HW2 9111   5.899   3.542   5.845 -1.3424 -0.5508 -1.6926
 3038SOL     OW 9112   1.753   1.614   2.486  0.2256  0.2911  0.5790
 3038SOL    HW1 9113   1.710   1.578   2.408  0.0721 -0.4177  0.9846
 3038SOL    HW2 9114   1.738   1.708   2.480 -0.9051  0.1180  0.4168
 3039SOL     OW 9115   0.460   5.339   5.456 -0.0103 -0.1738  0.5949
 3039SOL    HW1 9116   0.416   5.365   5.537 -0.6385  1.7866 -0.3023
 3039SOL    HW2 9117   0.548   5.376   5.463 -0.2666  0.5405  0.1370
 3040SOL     OW 9118   2.265   4.634   4.573 -0.0472 -0.2152  0.7061
 3040SOL    HW1 9119   2.322   4.574   4.524 -1.1185 -0.9490  0.3121
 3040SOL    HW2 9120   2.272   4.603   4.664  2.9519  1.9468  1.3585
 3041SOL     OW 9121   1.725   4.600   3.041 -0.0244 -0.0931 -0.1022
 3041SOL    HW1 9122   1.687   4.651   3.113  1.3109 -1.1599  1.4054
 3041SOL    HW2 9123   1.792   4.658   3.004 -0.4128  0.2929 -0.2161
 3042SOL     OW 9124   5.354   2.809   0.737  0.5206  0.0320 -0.6360
 3042SOL    HW1 9125   5.390   2.892   0.771  1.1345 -1.1536  1.8433
 3042SOL    HW2 9126   5.430   2.754   0.722  0.0099 -1.2698  1.1988
 3043SOL     OW 9127   3.391   2.271   2.125  0.2973 -0.6376 -0.3306
 3043SOL    HW1 9128   3.358   2.359   2.107  0.6661 -0.2423  0.8495
 3043SOL    HW2 9129   3.453   2.283   2.197 -2.3462 -2.3261  2.4286
 3044SOL     OW 9130   4.082   2.300   2.700 -0.2416  0.1342  0.0767
 3044SOL    HW1 9131   4.141   2.344   2.761  0.7074 -1.0639  0.0750
 3044SOL    HW2 9132   3.994   2.319   2.733  0.1934  0.9986  0.7531
 3045SOL     OW 9133   3.738   3.395   1.958  0.0008 -0.1641 -0.2550
 3045SOL    HW1 9134   3.737   3.434   2.045  1.1638 -0.0161 -0.2953
 3045SOL    HW2 9135   3.647   3.403   1.927 -0.3103  0.2464  0.7252
 3046SOL     OW 9136   1.666   2.909   5.638  0.1484 -0.6932 -0.7934
 3046SOL    HW1 9137   1.595   2.922   5.575  0.4456  1.2180 -0.8123
 3046SOL    HW2 9138   1.624   2.871   5.714 -1.1459  1.2778 -0.4415
 3047SOL     OW 9139   1.836   4.479   1.507 -0.2078  0.1257 -0.2358
 3047SOL    HW1 9140   1.802   4.537   1.439 -1.7450  2.1946  2.1023
 3047SOL    HW2 9141   1.759   4.458   1.561  0.7376 -2.3616  0.2873
 3048SOL     OW 9142   1.983   2.092   0.983 -0.5056  1.2146 -0.0209
 3048SOL    HW1 9143   1.939   2.169   1.019 -0.6503  1.6673 -1.1157
 3048SOL    HW2 9144   2.007   2.040   1.060 -2.0849  1.4262  0.6670
 3049SOL     OW 9145   2.223   3.181   0.511 -0.2115  0.0168 -0.2614
 3049SOL    HW1 9146   2.303   3.232   0.525  0.5143 -1.6942  2.3868
 3049SOL    HW2 9147   2.244   3.124   0.437  0.3238  0.8636 -0.7794
 3050SOL     OW 9148   2.679   3.321   5.940 -0.3981 -0.2430  0.3146
 3050SOL    HW1 9149   2.728   3.364   5.869 -1.1713 -1.0012 -0.7066
 3050SOL    HW2 9150   2.592   3.360   5.935  0.1419  1.4522  2.4294
 3051SOL     OW 9151   2.813   3.160   0.810 -0.2675  0.0841  0.0568
 3051SOL    HW1 9152   2.853   3.230   0.861  0.3178 -0.5260  0.4465
 3051SOL    HW2 9153   2.820   3.190   0.719  1.9464 -0.4083  0.0096
 3052SOL     OW 9154   1.911   3.145   0.855 -0.1928  0.2974 -0.3872
 3052SOL    HW1 9155   1.970   3.070   0.848 -1.4627 -0.6155 -1.8468
 3052SOL    HW2 9156   1.925   3.194   0.774 -0.4547  0.8245 -0.1144
 3053SOL     OW 9157   3.029   1.340   0.053 -0.2201 -0.7313 -0.0758
 3053SOL    HW1 9158   3.122   1.329   0.032 -0.0530 -1.3882  0.9628
 3053SOL    HW2 9159   2.983   1.293  -0.016  0.1960 -0.1448 -0.7736
 3054SOL     OW 9160   4.049   4.109   1.458 -0.0898 -0.2774 -0.4915
 3054SOL    HW1 9161   4.060   4.015   1.473 -1.2605 -0.4807 -0.8170
 3054SOL    HW2 9162   4.108   4.128   1.385  2.1864 -0.1886  1.2568
 3055SOL     OW 9163   1.635   4.729   1.688  0.2435  0.2244 -0.3323
 3055SOL    HW1 9164   1.592   4.728   1.603 -0.4842 -0.1596  0.0296
 3055SOL    HW2 9165   1.617   4.816   1.723 -1.6119 -0.4337  0.4762
 3056SOL     OW 9166   1.055   4.921   5.431 -0.1553  0.5237  0.6347
 3056SOL    HW1 9167   1.141   4.881   5.444  0.2670  1.2629  0.2153
 3056SOL    HW2 9168   1.002   4.852   5.390 -0.0225 -0.2019  1.6565
 3057SOL     OW 9169   3.397   3.288   5.273  0.6039  0.2968 -0.3131
 3057SOL    HW1 9170   3.379   3.256   5.362  1.6234  0.5411 -0.0025
 3057SOL    HW2 9171   3.315   3.274   5.226 -0.4740  1.6256  1.0704
 3058SOL     OW 9172   3.059   1.915   3.409  0.0945 -0.1722 -0.1250
 3058SOL    HW1 9173   3.056   1.969   3.330  3.5827  1.2931  0.5624
 3058SOL    HW2 9174   3.069   1.826   3.377 -0.1210  0.2248 -1.3349
 3059SOL     OW 9175   3.259   4.244   1.933 -0.2791  0.4914  0.1220
 3059SOL    HW1 9176   3.198   4.237   1.859 -0.4480  1.6429  0.1334
 3059SOL    HW2 9177   3.214   4.301   1.996  0.4831  0.7413  0.4579
 3060SOL     OW 9178   2.246   4.703   2.033 -0.0613 -0.4639 -0.0494
 3060SOL    HW1 9179   2.270   4.763   2.103 -0.6573  0.0620 -0.2806
 3060SOL    HW2 9180   2.308   4.630   2.041  0.8430  0.2993  0.0703
 3061SOL     OW 9181   5.597   2.605   3.806  0.6332  0.3909 -0.1096
 3061SOL    HW1 9182   5.524   2.654   3.771 -1.7099 -2.5788  0.1998
 3061SOL    HW2 9183   5.667   2.616   3.742 -1.2917  0.4914 -2.3205
 3062SOL     OW 9184   0.065   3.040   1.246  0.7684  0.6717  0.1920
 3062SOL    HW1 9185  -0.005   3.026   1.182  0.4143 -0.9451  0.8741
 3062SOL    HW2 9186   0.019   3.068   1.325  1.1591  2.1449 -0.0692
 3063SOL     OW 9187   2.962   3.159   0.255  0.4083  0.2627  0.1845
 3063SOL    HW1 9188   3.005   3.077   0.282 -0.8048  0.1033  1.7663
 3063SOL    HW2 9189   2.983   3.166   0.162  0.3366 -2.0029 -0.0805
 3064SOL     OW 9190   4.494   1.924   1.989  0.0470 -0.0258 -0.0437
 3064SOL    HW1 9191   4.472   2.009   1.950 -0.8126 -0.8151 -1.3535
 3064SOL    HW2 9192   4.539   1.877   1.918  0.6034 -0.6423  0.7045
 3065SOL     OW 9193   1.439   2.897   4.266 -0.0768 -0.5728 -0.0532
 3065SOL    HW1 9194   1.525   2.868   4.298  0.1196 -0.3211 -0.3498
 3065SOL    HW2 9195   1.454   2.986   4.235 -0.0047 -1.1700 -1.8673
 3066SOL     OW 9196   1.894   1.548   1.936  0.0387 -1.3522  0.3645
 3066SOL    HW1 9197   1.861   1.613   1.874  4.1391 -0.3663 -1.1676
 3066SOL    HW2 9198   1.816   1.502   1.967 -2.9490  2.9794  0.1340
 3067SOL     OW 9199   4.014   4.215   4.995  0.1599 -0.1732  0.1459
 3067SOL    HW1 9200   3.954   4.140   4.986  1.2343 -1.0427 -0.0106
 3067SOL    HW2 9201   4.022   4.249   4.906 -2.1736  1.6577  0.5546
 3068SOL     OW 9202   0.599   4.740   1.850 -0.3938 -0.0001  0.2083
 3068SOL    HW1 9203   0.637   4.827   1.854  0.8141 -0.5318  3.6972
 3068SOL    HW2 9204   0.657   4.691   1.790  0.6240  0.8570  0.4700
 3069SOL     OW 9205   1.446   5.097   4.049  0.4937  0.0232  0.1271
 3069SOL    HW1 9206   1.417   5.169   3.994  0.0835 -0.0658  0.2213
 3069SOL    HW2 9207   1.439   5.019   3.993 -0.1950 -0.1091  0.3800
 3070SOL     OW 9208   4.282   3.253   5.928 -0.3641  0.4114  0.0514
 3070SOL    HW1 9209   4.301   3.161   5.950 -1.2353 -0.0232 -0.9310
 3070SOL    HW2 9210   4.315   3.302   6.003  1.2817 -0.5893  0.0458
 3071SOL     OW 9211   1.818   1.222   1.278  1.3375 -0.3136 -0.9186
 3071SOL    HW1 9212   1.776   1.173   1.207 -0.6772  0.5511 -0.4248
 3071SOL    HW2 9213   1.744   1.252   1.332  2.7716 -0.7844  1.4531
 3072SOL     OW 9214   5.470   3.042   0.838 -0.2072 -0.7309  0.3156
 3072SOL    HW1 9215   5.420   3.092   0.903  0.3974  1.1113 -0.5742
 3072SOL    HW2 9216   5.545   3.097   0.818  0.4617 -1.9966 -0.7880
 3073SOL     OW 9217   5.586   1.782   5.827  0.1074  0.8012  0.1748
 3073SOL    HW1 9218   5.552   1.820   5.908  1.8355 -1.4307  2.1039
 3073SOL    HW2 9219   5.530   1.706   5.811  0.5797  0.4664  0.0727
 3074SOL     OW 9220   5.099   4.868   1.352  0.0550 -0.3876  0.4005
 3074SOL    HW1 9221   5.185   4.834   1.376 -0.1406 -0.2550  1.3137
 3074SOL    HW2 9222   5.046   4.858   1.431 -1.4675 -2.6515 -0.7781
 3075SOL     OW 9223   1.233   0.631   4.168 -0.5625 -0.3665  0.1582
 3075SOL    HW1 9224   1.238   0.605   4.260  1.2128 -0.2063  0.1462
 3075SOL    HW2 9225   1.208   0.723   4.171 -3.1780 -1.0201  0.3362
 3076SOL     OW 9226   2.822   0.029   5.326 -0.2466  0.0681 -0.0809
 3076SOL    HW1 9227   2.820  -0.066   5.341  0.6469  0.0427 -0.0771
 3076SOL    HW2 9228   2.845   0.039   5.234 -1.6119  0.2780 -0.4142
 3077SOL     OW 9229   2.180   2.875   2.306  0.6669 -0.1341 -0.2621
 3077SOL    HW1 9230   2.089   2.852   2.286  1.5087 -2.7161 -1.5151
 3077SOL    HW2 9231   2.231   2.799   2.280  3.2816  1.3791  0.0366
 3078SOL     OW 9232   1.502   0.361   5.026  0.4237 -0.0447  0.3674
 3078SOL    HW1 9233   1.426   0.418   5.021  0.7507  0.3229 -1.2503
 3078SOL    HW2 9234   1.476   0.281   4.981  0.9938  0.1048 -0.2489
 3079SOL     OW 9235   3.904   0.906   0.905 -0.4516 -0.0499 -0.4563
 3079SOL    HW1 9236   3.882   0.881   0.994 -0.3330  2.4029  0.3339
 3079SOL    HW2 9237   3.821   0.904   0.858 -0.9681  1.0712  0.3786
 3080SOL     OW 9238   3.617   5.664   1.743 -0.6391 -0.2295 -0.0331
 3080SOL    HW1 9239   3.587   5.574   1.733 -0.6721 -0.4817  1.9516
 3080SOL    HW2 9240   3.538   5.717   1.728 -0.8365 -0.5742 -0.2389
 3081SOL     OW 9241   2.026   2.680   0.864  1.0239  0.4968  0.7722
 3081SOL    HW1 9242   2.028   2.618   0.792  2.3983 -0.5371  1.6533
 3081SOL    HW2 9243   1.933   2.684   0.890  0.7207 -0.1436 -0.1732
 3082SOL     OW 9244   0.930   4.449   2.032 -0.5845  0.0578  0.0046
 3082SOL    HW1 9245   0.858   4.437   1.971  0.3098  1.2294 -1.3299
 3082SOL    HW2 9246   0.900   4.517   2.092 -0.8220  0.1134 -0.1788
 3083SOL     OW 9247   2.981   1.609   3.489  0.4326 -0.5305 -0.4291
 3083SOL    HW1 9248   3.070   1.641   3.499  0.4967 -0.8885  0.2664
 3083SOL    HW2 9249   2.991   1.514   3.476  0.1352 -0.6814  0.3717
 3084SOL     OW 9250   1.945   4.240   1.582 -0.2927 -0.6165  0.5444
 3084SOL    HW1 9251   1.899   4.160   1.556 -0.8807 -0.7221  1.8364
 3084SOL    HW2 9252   1.883   4.310   1.565 -0.7515 -0.7050  1.7978
 3085SOL     OW 9253   5.542   5.357   1.482  0.2147  0.0693 -0.0322
 3085SOL    HW1 9254   5.468   5.415   1.468  0.5617  0.4245 -0.4237
 3085SOL    HW2 9255   5.618   5.415   1.482  0.4030 -0.1146  1.6594
 3086SOL     OW 9256   1.419   2.371   3.923 -0.7274 -0.5069  0.2289
 3086SOL    HW1 9257   1.337   2.321   3.916 -0.8635 -0.1150 -1.8017
 3086SOL    HW2 9258   1.390   2.461   3.943 -0.7185 -0.5645  0.5034
 3087SOL     OW 9259   0.105   4.454   5.793  0.0699  0.1677  0.0072
 3087SOL    HW1 9260   0.166   4.466   5.721  0.5898 -1.8653  0.0409
 3087SOL    HW2 9261   0.019   4.466   5.754  0.3977  2.2019 -0.2203
 3088SOL     OW 9262   3.048   2.935   0.774 -0.3098 -0.1423 -0.1506
 3088SOL    HW1 9263   3.017   3.007   0.719 -0.2077  0.3919  0.4845
 3088SOL    HW2 9264   2.968   2.895   0.809 -0.3660 -0.3447 -0.5055
 3089SOL     OW 9265   5.275   3.164   2.727  0.4922  0.2472 -0.4626
 3089SOL    HW1 9266   5.357   3.201   2.696  0.1666  0.6008 -0.9152
 3089SOL    HW2 9267   5.210   3.234   2.714  0.5439  0.9418  2.2174
 3090SOL     OW 9268   2.052   4.141   4.950  0.5378 -0.1878  0.3341
 3090SOL    HW1 9269   1.978   4.169   4.895 -0.6130 -0.1522  1.8606
 3090SOL    HW2 9270   2.128   4.184   4.909 -0.6911  2.3948  0.5183
 3091SOL     OW 9271   2.807   5.019   1.432  0.0196  1.0058 -0.4381
 3091SOL    HW1 9272   2.715   5.043   1.433 -0.1700  0.3236 -0.6612
 3091SOL    HW2 9273   2.841   5.053   1.349 -0.7905 -1.3801 -1.8465
 3092SOL     OW 9274   1.952   1.853   1.145  0.2850 -0.1381 -1.0045
 3092SOL    HW1 9275   1.996   1.812   1.070  2.3245  2.2964 -1.2733
 3092SOL    HW2 9276   1.875   1.894   1.107  1.2823  1.0489 -1.8314
 3093SOL     OW 9277   3.436   0.282   1.571  0.1990  0.6601 -0.4082
 3093SOL    HW1 9278   3.519   0.325   1.549  0.8137  1.1306  2.4649
 3093SOL    HW2 9279   3.407   0.244   1.488  3.0998  0.7576 -1.6050
 3094SOL     OW 9280   4.307   4.654   5.599  0.2918 -0.1841  0.3579
 3094SOL    HW1 9281   4.213   4.637   5.591  0.1541 -0.5958  2.2854
 3094SOL    HW2 9282   4.315   4.704   5.681  1.8655 -1.4458  1.0218
 3095SOL     OW 9283   2.820   3.762   0.716  0.4037 -0.1269 -0.1413
 3095SOL    HW1 9284   2.857   3.760   0.804 -1.4414 -0.8310  0.6485
 3095SOL    HW2 9285   2.897   3.768   0.659  1.6176  0.9090  1.5020
 3096SOL     OW 9286   1.243   3.994   5.829  0.1366  0.0481  0.2655
 3096SOL    HW1 9287   1.218   3.993   5.921  1.2380  2.1666  0.6469
 3096SOL    HW2 9288   1.169   3.955   5.783 -1.1967  0.5787  1.8847
 3097SOL     OW 9289   4.060   3.343   3.176  0.1699 -0.2230 -0.0384
 3097SOL    HW1 9290   3.965   3.355   3.183  0.3892  2.0425 -0.1169
 3097SOL    HW2 9291   4.081   3.376   3.088  1.0024 -0.8881 -0.0952
 3098SOL     OW 9292   3.607   2.652   5.914 -0.2439 -0.0075  0.7588
 3098SOL    HW1 9293   3.563   2.679   5.833 -1.1917 -3.4313 -0.0052
 3098SOL    HW2 9294   3.563   2.702   5.983 -1.3977  0.8275 -0.5344
 3099SOL     OW 9295   3.331   2.001   2.542 -0.4365  0.2729  0.9412
 3099SOL    HW1 9296   3.338   2.096   2.531 -1.3006  0.4386  1.6674
 3099SOL    HW2 9297   3.302   1.969   2.456  1.7937  0.4034  0.0955
 3100SOL     OW 9298   3.937   4.420   2.272 -0.1062 -0.6020  0.1711
 3100SOL    HW1 9299   3.917   4.476   2.347 -0.4419 -1.6715  0.9168
 3100SOL    HW2 9300   4.031   4.400   2.281  0.1907  0.4325 -0.5247
 3101SOL     OW 9301   3.117   3.546   5.012  0.2802  0.4855 -0.1292
 3101SOL    HW1 9302   3.087   3.523   4.925 -0.3177 -0.1340  0.2322
 3101SOL    HW2 9303   3.038   3.577   5.057  0.4192  0.0167  0.4459
 3102SOL     OW 9304   2.014   3.521   2.164 -0.5486 -0.3033 -0.2050
 3102SOL    HW1 9305   1.974   3.608   2.167  0.0287 -0.0279 -0.3684
 3102SOL    HW2 9306   2.079   3.528   2.094  1.3795 -0.0622  1.5185
 3103SOL     OW 9307   2.759   0.884   1.174  0.0712 -0.3730 -0.0315
 3103SOL    HW1 9308   2.813   0.811   1.143  0.4273 -1.4056  2.6932
 3103SOL    HW2 9309   2.671   0.848   1.178  0.4017 -1.0988  2.2811
 3104SOL     OW 9310   3.056   0.166   1.484 -0.2557 -0.3909 -0.5567
 3104SOL    HW1 9311   3.136   0.162   1.433  0.4719 -0.8277  0.5708
 3104SOL    HW2 9312   3.010   0.243   1.452  0.8212  0.1081 -0.9330
 3105SOL     OW 9313   3.441   3.092   1.048  0.1780  0.0324  0.3406
 3105SOL    HW1 9314   3.348   3.110   1.029  0.5664  1.7454 -0.1611
 3105SOL    HW2 9315   3.458   3.008   1.006 -0.6890  0.5955 -1.2419
 3106SOL     OW 9316   1.302   5.911   4.670 -0.4624 -0.5248  0.3508
 3106SOL    HW1 9317   1.217   5.873   4.694  0.8990 -3.4517  0.9684
 3106SOL    HW2 9318   1.343   5.932   4.754  0.4677 -1.7651  0.2494
 3107SOL     OW 9319   2.406   4.622   1.356 -0.1613 -0.4491 -0.0318
 3107SOL    HW1 9320   2.439   4.648   1.270  0.0170  0.0776  0.1923
 3107SOL    HW2 9321   2.360   4.699   1.389 -2.7215 -1.5410 -0.8446
 3108SOL     OW 9322   1.117   2.664   1.585  0.0915  0.0913  0.3383
 3108SOL    HW1 9323   1.058   2.611   1.531 -0.4546 -0.2102  1.2122
 3108SOL    HW2 9324   1.067   2.742   1.606  0.7677  0.8188 -0.6431
 3109SOL     OW 9325   1.926   2.410   2.806  0.2452 -0.3533  0.3889
 3109SOL    HW1 9326   1.928   2.476   2.737 -0.8918  1.5517  2.0258
 3109SOL    HW2 9327   2.000   2.432   2.863 -0.5439 -0.0182  1.3165
 3110SOL     OW 9328   1.207   4.336   3.006  0.0114 -0.0616  0.1145
 3110SOL    HW1 9329   1.213   4.324   2.911  1.9115  1.8550 -0.0880
 3110SOL    HW2 9330   1.272   4.277   3.042  1.3547  1.2734 -0.0385
 3111SOL     OW 9331   5.042   3.351   3.627 -0.1565 -0.2963 -0.5125
 3111SOL    HW1 9332   5.116   3.301   3.593  0.2049  1.1929 -2.0539
 3111SOL    HW2 9333   4.969   3.329   3.569  0.0921  1.1350 -1.4268
 3112SOL     OW 9334   4.857   2.118   1.528  0.2370 -0.3151  0.1127
 3112SOL    HW1 9335   4.791   2.181   1.557 -0.3294 -0.6258 -0.4674
 3112SOL    HW2 9336   4.928   2.171   1.493 -1.1915  0.0509 -2.5182
 3113SOL     OW 9337   5.902   2.094   2.103 -0.7410 -0.0800 -0.2940
 3113SOL    HW1 9338   5.937   2.135   2.024 -0.2107  1.0725  0.5222
 3113SOL    HW2 9339   5.840   2.158   2.138  1.1613  0.7511  1.7904
 3114SOL     OW 9340   0.370   2.529   2.812  0.1260 -0.3339 -0.3019
 3114SOL    HW1 9341   0.369   2.436   2.789 -1.7092 -0.6226  0.7619
 3114SOL    HW2 9342   0.436   2.567   2.754  0.1554 -2.1061 -1.5136
 3115SOL     OW 9343   5.074   2.549   3.913  0.4087  0.2802  0.0466
 3115SOL    HW1 9344   5.092   2.582   3.825  1.0662  0.0202  0.0711
 3115SOL    HW2 9345   4.981   2.528   3.913  0.5205 -0.2831 -0.7896
 3116SOL     OW 9346   2.104   4.499   3.309 -0.2646 -0.2047 -0.2998
 3116SOL    HW1 9347   2.182   4.485   3.256  0.7242 -1.0687  1.3057
 3116SOL    HW2 9348   2.137   4.511   3.398 -1.9110  0.5024  0.2607
 3117SOL     OW 9349   2.101   1.872   1.385  0.1139 -0.2815  0.7127
 3117SOL    HW1 9350   2.044   1.850   1.311  2.4059  2.0254 -1.9608
 3117SOL    HW2 9351   2.080   1.963   1.405  2.0634  0.3078  0.3142
 3118SOL     OW 9352   0.886   3.493   2.966  0.3969  0.4075 -0.1313
 3118SOL    HW1 9353   0.855   3.582   2.984  2.7443  1.2056  0.2651
 3118SOL    HW2 9354   0.927   3.465   3.048 -0.7842 -1.2940 -0.0739
 3119SOL     OW 9355   1.197   4.438   1.252 -0.4109 -0.1736  0.4643
 3119SOL    HW1 9356   1.210   4.469   1.341 -0.8219  1.5197 -0.0199
 3119SOL    HW2 9357   1.229   4.510   1.197  0.5082 -1.4771 -0.7604
 3120SOL     OW 9358   1.158   0.505   3.330  0.1124  0.0215 -0.1867
 3120SOL    HW1 9359   1.208   0.580   3.364 -0.9544  0.9986 -0.6795
 3120SOL    HW2 9360   1.206   0.428   3.362  0.5226  0.8876  1.4515
 3121SOL     OW 9361   5.609   4.001   2.106 -0.2329 -0.0581  0.2033
 3121SOL    HW1 9362   5.639   4.038   2.023 -1.6389 -1.2996 -0.9206
 3121SOL    HW2 9363   5.558   4.071   2.147  1.3101  0.9063  0.5381
 3122SOL     OW 9364   0.955   4.534   5.500  0.3879  0.2882 -0.1530
 3122SOL    HW1 9365   0.960   4.470   5.428 -0.2431 -0.8502  0.7819
 3122SOL    HW2 9366   1.018   4.501   5.565 -0.8973 -0.1486  0.9088
 3123SOL     OW 9367   4.064   3.612   1.581 -0.0194  0.0427 -0.4159
 3123SOL    HW1 9368   4.034   3.646   1.666 -2.2939 -0.3724 -1.0018
 3123SOL    HW2 9369   4.101   3.526   1.602  2.2283  1.1593  0.5266
 3124SOL     OW 9370   4.065   5.621   0.493  0.6404  0.0563  0.1939
 3124SOL    HW1 9371   4.104   5.533   0.486 -2.0220 -1.1568 -0.5833
 3124SOL    HW2 9372   4.021   5.621   0.578  1.1836  0.9388  0.4916
 3125SOL     OW 9373   1.934   4.268   3.282  0.2275 -0.3669  0.0081
 3125SOL    HW1 9374   1.995   4.342   3.279  2.2921 -1.9380  0.5745
 3125SOL    HW2 9375   1.951   4.226   3.366 -1.7839 -0.8159  0.2469
 3126SOL     OW 9376   0.885   1.449   5.968 -0.2912  0.2879 -0.0957
 3126SOL    HW1 9377   0.852   1.525   6.015 -0.5401  0.3595 -0.3834
 3126SOL    HW2 9378   0.945   1.485   5.902 -0.7245  0.2741 -0.5060
 3127SOL     OW 9379   2.882   4.713   0.318 -0.3573 -0.2908 -0.2363
 3127SOL    HW1 9380   2.819   4.703   0.389 -0.0782  0.3800  0.1160
 3127SOL    HW2 9381   2.860   4.644   0.255  0.4610 -2.0054  1.2744
 3128SOL     OW 9382   4.912   2.404   1.605 -0.0667  0.2826  0.0005
 3128SOL    HW1 9383   4.821   2.405   1.633 -0.2417 -0.3479 -0.5276
 3128SOL    HW2 9384   4.963   2.413   1.686 -0.5922  0.6105  0.2964
 3129SOL     OW 9385   3.770   2.645   3.318  0.0100  0.1632 -0.3413
 3129SOL    HW1 9386   3.813   2.696   3.386  0.3270 -1.7931  1.0179
 3129SOL    HW2 9387   3.678   2.640   3.347  0.3438 -1.5070  0.5383
 3130SOL     OW 9388   4.190   1.807   2.777  0.4760 -0.0133  0.2592
 3130SOL    HW1 9389   4.276   1.848   2.771  0.5469 -0.3527 -1.4325
 3130SOL    HW2 9390   4.129   1.879   2.793  0.8768  0.4500 -0.2874
 3131SOL     OW 9391   0.662   0.221   4.175 -0.0460  0.4751 -0.1524
 3131SOL    HW1 9392   0.743   0.248   4.217  0.1432 -0.1676 -0.0968
 3131SOL    HW2 9393   0.689   0.157   4.110 -0.3853  1.1423 -0.9645
 3132SOL     OW 9394   2.392   2.858   4.557  0.7626  0.1662  0.2665
 3132SOL    HW1 9395   2.396   2.906   4.640 -0.4649  0.6578  0.0690
 3132SOL    HW2 9396   2.420   2.770   4.579 -0.2428  0.0972  1.3871
 3133SOL     OW 9397   4.110   2.756   1.540  0.4207 -0.1589  0.3105
 3133SOL    HW1 9398   4.120   2.851   1.532  1.0565 -0.2786 -0.5490
 3133SOL    HW2 9399   4.018   2.739   1.518  0.5753  0.1672 -0.6430
 3134SOL     OW 9400   4.602   2.242   2.950 -0.1255  0.4804 -1.0007
 3134SOL    HW1 9401   4.655   2.322   2.943 -1.7510  1.5348 -1.8979
 3134SOL    HW2 9402   4.518   2.272   2.983  0.3526 -1.4242  2.3589
 3135SOL     OW 9403   4.723   4.217   3.979 -0.7458 -0.3862 -0.0891
 3135SOL    HW1 9404   4.699   4.276   4.051  0.7679 -0.0121  0.1306
 3135SOL    HW2 9405   4.683   4.256   3.902 -2.5730 -0.8974  0.5183
 3136SOL     OW 9406   3.414   3.181   4.041  0.2755 -0.2625 -0.2477
 3136SOL    HW1 9407   3.456   3.230   4.112  0.5677  0.1589 -0.7085
 3136SOL    HW2 9408   3.420   3.089   4.069  1.5630 -0.2242 -0.3193
 3137SOL     OW 9409   3.398   4.942   4.128  0.0002  0.2292 -0.3031
 3137SOL    HW1 9410   3.409   5.006   4.058 -0.6995 -0.5774 -1.1662
 3137SOL    HW2 9411   3.310   4.907   4.116  0.2800 -0.7210  0.2915
 3138SOL     OW 9412   4.220   2.783   2.261 -0.3469 -0.1575 -0.0148
 3138SOL    HW1 9413   4.172   2.730   2.197  1.2801 -0.5094 -0.9864
 3138SOL    HW2 9414   4.152   2.834   2.305 -1.4999  0.3231 -2.2087
 3139SOL     OW 9415   2.041   3.723   5.244 -0.5700  0.2262  0.5384
 3139SOL    HW1 9416   2.033   3.725   5.339  0.4386  0.6591  0.6219
 3139SOL    HW2 9417   1.989   3.647   5.217 -1.4301  0.5037  1.3687
 3140SOL     OW 9418   5.781   3.900   5.242 -0.0103  0.0900  0.3063
 3140SOL    HW1 9419   5.773   3.919   5.335  0.0171 -0.8830  0.5167
 3140SOL    HW2 9420   5.863   3.942   5.216  0.8112 -0.9665  1.0961
 3141SOL     OW 9421   2.220   1.486   0.865 -0.3300 -0.2879 -0.0154
 3141SOL    HW1 9422   2.306   1.449   0.843  0.1232  0.8620 -0.2837
 3141SOL    HW2 9423   2.166   1.470   0.788 -0.1290 -0.3556 -0.1430
 3142SOL     OW 9424   0.693   3.481   2.582 -0.1837  0.0586 -0.0606
 3142SOL    HW1 9425   0.787   3.500   2.581 -0.1372 -0.0280  1.2484
 3142SOL    HW2 9426   0.662   3.516   2.666 -1.3500  0.2243 -0.5417
 3143SOL     OW 9427   2.963   2.955   3.352 -0.2973  0.1693  0.2697
 3143SOL    HW1 9428   3.018   3.011   3.298 -1.1110 -0.2563 -1.0360
 3143SOL    HW2 9429   2.880   3.002   3.359 -0.4430 -0.1201  0.5360
 3144SOL     OW 9430   2.718   2.416   1.331  0.0430  0.3492 -0.3332
 3144SOL    HW1 9431   2.795   2.383   1.379  1.0673  1.3723 -1.2111
 3144SOL    HW2 9432   2.644   2.368   1.369  1.0102 -0.1073  1.0807
 3145SOL     OW 9433   2.338   3.373   4.225  0.2137 -0.1950  0.1399
 3145SOL    HW1 9434   2.316   3.305   4.161 -0.2428 -0.0508  0.1409
 3145SOL    HW2 9435   2.403   3.332   4.282 -0.2571 -0.7225  0.3029
 3146SOL     OW 9436   3.187   2.828   3.174 -0.1783 -0.3186 -0.2189
 3146SOL    HW1 9437   3.151   2.841   3.086 -0.4941  1.7722  0.1642
 3146SOL    HW2 9438   3.221   2.914   3.199 -1.0929 -0.5715  2.1341
 3147SOL     OW 9439   3.664   5.762   2.021 -0.4818 -0.2204  0.0028
 3147SOL    HW1 9440   3.592   5.701   2.039  0.3291 -1.8050 -1.7460
 3147SOL    HW2 9441   3.685   5.747   1.929  1.3128  1.0693  0.1536
 3148SOL     OW 9442   2.093   0.589   3.278 -0.4059  0.0466 -0.2125
 3148SOL    HW1 9443   2.009   0.616   3.317 -0.5099  0.2084 -0.5487
 3148SOL    HW2 9444   2.144   0.558   3.353 -0.7943 -0.1259 -0.0115
 3149SOL     OW 9445   0.336   2.017   5.033 -0.6861  0.7445 -0.2978
 3149SOL    HW1 9446   0.391   2.080   4.986  2.3083 -0.6126  1.0840
 3149SOL    HW2 9447   0.359   1.932   4.996  0.3546 -0.1642  2.1707
 3150SOL     OW 9448   0.109   2.734   0.457  0.5724 -0.1997 -0.7766
 3150SOL    HW1 9449   0.204   2.739   0.446  0.4968  0.9800 -1.0148
 3150SOL    HW2 9450   0.074   2.729   0.368  0.3363  1.1504 -0.7714
 3151SOL     OW 9451   4.033   2.729   0.978 -0.3759 -0.0178  0.4217
 3151SOL    HW1 9452   4.073   2.659   0.925 -0.7538 -0.7754  1.1107
 3151SOL    HW2 9453   4.024   2.803   0.918  0.5608 -0.3730 -0.1739
 3152SOL     OW 9454   2.080   1.666   2.101 -0.5438  0.5108  0.0766
 3152SOL    HW1 9455   2.037   1.625   2.026 -0.1189 -1.0738  0.6527
 3152SOL    HW2 9456   2.013   1.667   2.170  0.4164 -2.6361  1.2108
 3153SOL     OW 9457   2.850   1.985   2.654  0.0806 -0.2312 -0.4733
 3153SOL    HW1 9458   2.780   1.996   2.719 -0.6490  0.9904 -1.4319
 3153SOL    HW2 9459   2.923   2.036   2.688 -0.9456  2.0348 -1.4879
 3154SOL     OW 9460   0.176   1.308   1.273 -0.2657 -0.7759 -0.1796
 3154SOL    HW1 9461   0.267   1.280   1.278 -0.1770 -0.2769  1.7775
 3154SOL    HW2 9462   0.137   1.250   1.207  1.5476 -0.6590 -1.4288
 3155SOL     OW 9463   2.999   2.611   5.477 -0.4484  0.6806  0.1584
 3155SOL    HW1 9464   3.027   2.538   5.532 -1.0658  1.6148  1.7895
 3155SOL    HW2 9465   2.987   2.684   5.539 -1.8843  1.5801 -1.1257
 3156SOL     OW 9466   4.274   1.744   0.584  0.0968  0.1210 -0.0947
 3156SOL    HW1 9467   4.277   1.839   0.594 -0.4722  0.3432 -1.8012
 3156SOL    HW2 9468   4.219   1.714   0.656  0.1476  1.0902  0.3676
 3157SOL     OW 9469   0.107   2.981   3.830 -0.3071 -0.4457 -0.1081
 3157SOL    HW1 9470   0.051   2.928   3.773 -0.6469 -0.9304  0.6542
 3157SOL    HW2 9471   0.125   2.924   3.905 -0.3205  0.3604  0.5220
 3158SOL     OW 9472   3.179   2.207   5.508  0.0473  0.8292 -0.6743
 3158SOL    HW1 9473   3.115   2.182   5.575  1.6723 -1.2676  0.1890
 3158SOL    HW2 9474   3.153   2.156   5.431 -0.2205  1.1690 -0.8118
 3159SOL     OW 9475   4.249   3.365   2.551 -0.0895  0.4769  0.4047
 3159SOL    HW1 9476   4.187   3.300   2.516  0.0404  0.6696 -0.1972
 3159SOL    HW2 9477   4.316   3.372   2.484  0.3906  0.5518  0.8906
 3160SOL     OW 9478   2.540   3.855   0.151 -0.2975 -0.2042  0.2043
 3160SOL    HW1 9479   2.473   3.861   0.220  0.0712 -0.3511  0.5840
 3160SOL    HW2 9480   2.556   3.761   0.142  0.3940 -0.1368  0.6523
 3161SOL     OW 9481   2.963   2.997   3.641  0.2903 -0.2259  0.0871
 3161SOL    HW1 9482   2.962   2.983   3.546 -0.2985  1.1792 -0.1261
 3161SOL    HW2 9483   2.949   3.091   3.652  0.6584 -0.3229  1.5669
 3162SOL     OW 9484   0.341   2.635   1.317  0.3825 -0.2870 -0.5009
 3162SOL    HW1 9485   0.295   2.693   1.378  1.0965  0.1728 -0.3952
 3162SOL    HW2 9486   0.328   2.547   1.353 -0.8774 -0.2334 -0.7674
 3163SOL     OW 9487   1.651   3.692   2.497 -0.1941 -0.2675  0.2929
 3163SOL    HW1 9488   1.581   3.752   2.473  0.3131 -0.1481 -0.9812
 3163SOL    HW2 9489   1.612   3.633   2.560 -1.4692 -0.2731 -0.4773
 3164SOL     OW 9490   5.762   4.843   5.201 -0.2739  0.2776 -0.1567
 3164SOL    HW1 9491   5.852   4.860   5.228  0.3044  0.4724 -2.0624
 3164SOL    HW2 9492   5.713   4.921   5.225 -0.2086 -0.2561  1.8765
 3165SOL     OW 9493   2.605   2.090   2.538  0.1569 -0.0258 -0.0836
 3165SOL    HW1 9494   2.623   2.172   2.585 -0.4508 -0.7610  1.5079
 3165SOL    HW2 9495   2.684   2.038   2.552  0.7424  0.4389 -1.5052
 3166SOL     OW 9496   5.933   1.207   4.127  0.3022 -0.0973 -0.1358
 3166SOL    HW1 9497   5.985   1.198   4.207  0.5343 -0.6650 -0.3469
 3166SOL    HW2 9498   5.865   1.271   4.150  0.3367 -0.2890  0.5323
 3167SOL     OW 9499   3.261   3.069   3.611 -0.0786  0.8418 -0.1785
 3167SOL    HW1 9500   3.179   3.020   3.616 -0.0250  0.5819 -1.4289
 3167SOL    HW2 9501   3.327   3.004   3.585  0.6638  0.9342  1.3236
 3168SOL     OW 9502   2.174   0.541   2.214 -0.3933 -0.2504  0.3885
 3168SOL    HW1 9503   2.080   0.554   2.225 -0.3652  0.2004  0.1017
 3168SOL    HW2 9504   2.195   0.470   2.275 -0.6789  0.5154  1.3968
 3169SOL     OW 9505   0.173   2.199   3.229  0.2351  0.2274  0.0776
 3169SOL    HW1 9506   0.186   2.157   3.144 -0.5230 -1.7750  0.9058
 3169SOL    HW2 9507   0.086   2.239   3.222 -0.4667 -1.1780  0.3525
 3170SOL     OW 9508   2.767   1.505   1.243 -0.4339 -0.0128 -0.1385
 3170SOL    HW1 9509   2.773   1.470   1.155 -1.6983 -0.7688  0.0481
 3170SOL    HW2 9510   2.673   1.503   1.264 -0.2422  0.8483  0.9459
 3171SOL     OW 9511   4.592   3.424   2.812  0.2090 -0.2679 -0.3672
 3171SOL    HW1 9512   4.585   3.474   2.894  0.6606 -1.1790  0.2406
 3171SOL    HW2 9513   4.501   3.406   2.788  0.0812 -1.6758  1.0011
 3172SOL     OW 9514   2.918   5.737   3.967 -0.3536  0.6373  0.0913
 3172SOL    HW1 9515   2.993   5.785   4.001 -0.1889  1.3622 -1.2187
 3172SOL    HW2 9516   2.901   5.669   4.032  2.3610 -0.5159 -0.2602
 3173SOL     OW 9517   4.801   4.156   2.828  0.2711  0.3567  0.4089
 3173SOL    HW1 9518   4.841   4.210   2.897  0.9695 -0.7096  0.8625
 3173SOL    HW2 9519   4.867   4.151   2.760  0.6201 -0.7359  0.8069
 3174SOL     OW 9520   3.207   0.794   3.778  0.1443  0.3898  0.1021
 3174SOL    HW1 9521   3.165   0.879   3.770  0.5565  0.7970  1.9086
 3174SOL    HW2 9522   3.279   0.797   3.714 -0.3738  1.0444 -0.4686
 3175SOL     OW 9523   5.853   3.463   5.108 -0.2614 -0.2976 -0.2521
 3175SOL    HW1 9524   5.910   3.533   5.141  0.4156 -0.2643 -1.4456
 3175SOL    HW2 9525   5.877   3.386   5.160  0.0469 -0.0025  0.0481
 3176SOL     OW 9526   1.670   0.403   5.872 -0.2939  0.1259 -0.0233
 3176SOL    HW1 9527   1.619   0.450   5.806  1.3301 -1.0464 -2.2732
 3176SOL    HW2 9528   1.711   0.471   5.924 -1.3048  1.1059 -0.4616
 3177SOL     OW 9529   0.628   3.342   2.964  0.0520 -0.7389  0.0646
 3177SOL    HW1 9530   0.646   3.303   2.879  2.1879 -1.9985  1.0119
 3177SOL    HW2 9531   0.650   3.434   2.955 -0.0394 -0.7986 -0.8082
 3178SOL     OW 9532   4.131   2.093   5.484  1.1460  0.4542 -0.1455
 3178SOL    HW1 9533   4.041   2.087   5.517  0.6697  2.0409 -1.0161
 3178SOL    HW2 9534   4.186   2.082   5.562  0.1729  0.2573  0.5332
 3179SOL     OW 9535   1.717   5.048   2.988 -0.7498 -0.1093  0.2031
 3179SOL    HW1 9536   1.639   5.047   3.044 -0.6382 -0.4847  0.3495
 3179SOL    HW2 9537   1.790   5.028   3.047 -0.7011 -1.0985 -0.1730
 3180SOL     OW 9538   2.594   1.881   4.827  0.2523  0.1116 -0.2431
 3180SOL    HW1 9539   2.644   1.801   4.814  0.3717  0.3244 -1.1176
 3180SOL    HW2 9540   2.530   1.858   4.895  0.3134 -0.7120 -0.4547
 3181SOL     OW 9541   5.912   5.488   1.087 -0.6598 -0.1427 -0.2912
 3181SOL    HW1 9542   5.864   5.429   1.028  2.5710 -1.8827 -1.3874
 3181SOL    HW2 9543   5.937   5.562   1.032 -1.2392  0.3161  0.0459
 3182SOL     OW 9544   5.723   1.163   0.877  0.2546  0.2821 -0.1252
 3182SOL    HW1 9545   5.692   1.137   0.790 -0.3365  2.5377 -0.6483
 3182SOL    HW2 9546   5.644   1.188   0.925  0.7224  0.6301  0.4816
 3183SOL     OW 9547   1.027   5.376   2.691 -0.4864 -0.0279 -0.2242
 3183SOL    HW1 9548   1.120   5.398   2.679 -0.7131  0.1382 -2.0625
 3183SOL    HW2 9549   0.998   5.430   2.764  0.8994 -0.2289  0.5069
 3184SOL     OW 9550   0.749   1.807   1.702 -0.5129  0.2657 -0.1942
 3184SOL    HW1 9551   0.795   1.816   1.619 -2.6644  0.8624 -1.3949
 3184SOL    HW2 9552   0.678   1.871   1.697 -1.5197 -0.6575  1.5124
 3185SOL     OW 9553   5.509   1.118   4.356  0.5118 -0.6637 -0.0515
 3185SOL    HW1 9554   5.548   1.094   4.272  1.0543  0.0080 -0.0021
 3185SOL    HW2 9555   5.465   1.201   4.340  0.1279 -0.8181  0.1909
 3186SOL     OW 9556   1.671   2.552   5.833  0.2413 -0.0116 -0.8897
 3186SOL    HW1 9557   1.697   2.582   5.746 -0.2525 -0.6237 -1.2592
 3186SOL    HW2 9558   1.593   2.498   5.817  2.5799 -3.8186 -0.5997
 3187SOL     OW 9559   1.691   3.465   5.948  0.0662 -0.4778 -0.3545
 3187SOL    HW1 9560   1.602   3.499   5.943  0.1310 -0.3868 -0.9472
 3187SOL    HW2 9561   1.680   3.372   5.965 -0.1231 -0.3130  0.4869
 3188SOL     OW 9562   2.729   1.086   1.747  0.5225  0.0577 -0.4517
 3188SOL    HW1 9563   2.789   1.072   1.674  0.6078  1.2705 -0.6284
 3188SOL    HW2 9564   2.750   1.174   1.779 -2.4315  1.3777 -1.7859
 3189SOL     OW 9565   4.271   3.028   3.085 -0.0726 -0.3239 -0.0936
 3189SOL    HW1 9566   4.205   3.046   3.019 -0.6666 -1.4348  0.1715
 3189SOL    HW2 9567   4.355   3.042   3.040 -0.4379 -2.0503 -1.3998
 3190SOL     OW 9568   1.746   3.416   3.016 -0.3892 -0.0703 -0.4022
 3190SOL    HW1 9569   1.697   3.408   2.934  1.3807 -2.3498 -1.3603
 3190SOL    HW2 9570   1.730   3.506   3.045 -1.0229  0.8708 -3.2975
 3191SOL     OW 9571   1.794   1.234   2.114 -0.7052 -0.0547 -0.2142
 3191SOL    HW1 9572   1.744   1.316   2.115 -0.4583  0.1411 -1.7128
 3191SOL    HW2 9573   1.782   1.199   2.026 -0.0911 -1.1890  0.1313
 3192SOL     OW 9574   3.318   4.462   1.597 -0.2622  0.0932 -1.2916
 3192SOL    HW1 9575   3.408   4.445   1.567  0.0027  2.5984 -2.1458
 3192SOL    HW2 9576   3.329   4.515   1.676 -0.9929  0.3730 -1.3728
 3193SOL     OW 9577   1.333   2.822   3.796  0.0203 -0.2317 -0.1233
 3193SOL    HW1 9578   1.362   2.878   3.868  1.0804  1.1358 -1.5414
 3193SOL    HW2 9579   1.389   2.744   3.802 -0.4333 -0.4911  0.9668
 3194SOL     OW 9580   2.249   5.201   2.408  0.2880 -0.5023  0.5764
 3194SOL    HW1 9581   2.159   5.170   2.408 -0.5729  1.8198  0.2854
 3194SOL    HW2 9582   2.269   5.218   2.500  0.1435 -0.2546  0.5621
 3195SOL     OW 9583   1.821   4.663   1.884 -0.2708  0.0809 -0.6025
 3195SOL    HW1 9584   1.759   4.653   1.811 -0.1929  2.1329 -1.0038
 3195SOL    HW2 9585   1.906   4.673   1.841  0.3908 -2.5379 -0.0588
 3196SOL     OW 9586   4.963   2.537   2.622  0.3223  0.0064  0.3437
 3196SOL    HW1 9587   5.037   2.500   2.575  0.7016 -1.5192  2.0589
 3196SOL    HW2 9588   4.891   2.476   2.605  0.0260  0.3322  0.4201
 3197SOL     OW 9589   4.478   5.824   3.580  0.3050  0.0210 -0.1133
 3197SOL    HW1 9590   4.434   5.909   3.571 -0.8552 -0.5237  0.2019
 3197SOL    HW2 9591   4.406   5.761   3.587  1.1540 -0.9623 -0.0831
 3198SOL     OW 9592   2.970   2.525   0.553 -0.1753  0.3508 -0.1508
 3198SOL    HW1 9593   2.959   2.440   0.510 -1.7401  0.3412  0.2026
 3198SOL    HW2 9594   2.959   2.589   0.483  2.1552  0.2986 -0.6463
 3199SOL     OW 9595   0.837   0.510   1.472  0.1976  0.0508 -0.1687
 3199SOL    HW1 9596   0.790   0.594   1.470  0.4142  0.1614 -0.9010
 3199SOL    HW2 9597   0.769   0.445   1.452  0.5030  0.3035 -2.3545
 3200SOL     OW 9598   3.639   5.179   3.205 -0.5375  0.8530  0.0689
 3200SOL    HW1 9599   3.654   5.231   3.284 -1.2743  0.6072  0.3792
 3200SOL    HW2 9600   3.632   5.089   3.237  0.4786  0.5889 -0.4382
 3201SOL     OW 9601   4.105   2.840   4.050  0.5353  0.4268 -0.3043
 3201SOL    HW1 9602   4.127   2.933   4.047 -0.8141  0.7547 -0.8230
 3201SOL    HW2 9603   4.023   2.836   4.099  0.0515 -0.3722 -1.1308
 3202SOL     OW 9604   3.381   1.603   3.985  0.4230 -0.7516 -0.0639
 3202SOL    HW1 9605   3.390   1.694   4.015 -1.7307 -0.3543 -0.4151
 3202SOL    HW2 9606   3.469   1.567   3.990  0.8200  0.2890  3.4138
 3203SOL     OW 9607   2.140   2.680   1.892 -0.6300  0.2657  0.8141
 3203SOL    HW1 9608   2.142   2.651   1.983  1.7617 -0.0945  0.7141
 3203SOL    HW2 9609   2.227   2.717   1.877 -1.5591  1.9127 -0.8495
 3204SOL     OW 9610   5.209   5.112   2.745 -0.6603  0.0191  0.1510
 3204SOL    HW1 9611   5.161   5.184   2.787 -0.8155 -0.7698  1.3700
 3204SOL    HW2 9612   5.182   5.115   2.654 -1.0133  1.2264  0.2834
 3205SOL     OW 9613   1.444   1.665   2.504  0.4967  0.2783 -0.5597
 3205SOL    HW1 9614   1.449   1.605   2.429 -0.9024 -0.8106  0.1565
 3205SOL    HW2 9615   1.363   1.715   2.489  0.6425  0.6342 -0.1853
 3206SOL     OW 9616   2.018   2.204   1.794  0.2391  0.0368 -0.4920
 3206SOL    HW1 9617   2.040   2.129   1.850 -1.8014 -0.9724 -0.9537
 3206SOL    HW2 9618   2.029   2.170   1.704 -0.7691  0.2555 -0.7023
 3207SOL     OW 9619   2.131   1.713   3.952 -0.4842 -0.4550 -0.2076
 3207SOL    HW1 9620   2.152   1.755   4.036 -1.3563 -0.9677  0.2800
 3207SOL    HW2 9621   2.162   1.775   3.886  1.0032 -0.4359  0.4799
 3208SOL     OW 9622   0.894   0.763   0.930  0.1421 -0.4784  0.3098
 3208SOL    HW1 9623   0.972   0.813   0.955 -0.5161  0.9896 -0.4197
 3208SOL    HW2 9624   0.899   0.683   0.983  1.5807  0.0577  1.0549
 3209SOL     OW 9625   5.661   4.286   2.435  0.1321 -0.1598  0.2733
 3209SOL    HW1 9626   5.654   4.347   2.508 -1.1752 -0.1409  0.1544
 3209SOL    HW2 9627   5.711   4.212   2.469 -1.9674 -0.9784  1.7750
 3210SOL     OW 9628   4.211   1.172   3.285  0.3311  0.6868 -0.1189
 3210SOL    HW1 9629   4.265   1.094   3.282 -0.9504 -0.2824  0.7714
 3210SOL    HW2 9630   4.121   1.139   3.284 -0.2389  2.0827  1.0476
 3211SOL     OW 9631   1.699   1.554   3.015  0.2126 -0.4574  0.3363
 3211SOL    HW1 9632   1.757   1.618   3.055 -0.0946  0.7405 -1.0246
 3211SOL    HW2 9633   1.720   1.558   2.921 -1.1191 -0.9782 -0.0112
 3212SOL     OW 9634   4.046   1.660   4.331 -0.0677 -0.4645 -0.2871
 3212SOL    HW1 9635   4.062   1.750   4.359 -0.7769 -0.8420  1.4889
 3212SOL    HW2 9636   4.126   1.613   4.353  0.4654 -0.2010 -1.6120
 3213SOL     OW 9637   1.704   1.308   4.566 -0.3944  0.2496  0.2857
 3213SOL    HW1 9638   1.664   1.388   4.533 -1.4960 -0.0755  0.7807
 3213SOL    HW2 9639   1.630   1.252   4.590  0.3557 -0.7338  0.3942
 3214SOL     OW 9640   3.962   3.794   3.414  0.8813  0.2645 -0.4909
 3214SOL    HW1 9641   3.949   3.888   3.422  1.1741  0.3302 -0.7660
 3214SOL    HW2 9642   3.880   3.761   3.377  0.2891  0.2296  0.7826
 3215SOL     OW 9643   5.843   3.369   3.439  0.4105  1.0505  0.0970
 3215SOL    HW1 9644   5.748   3.377   3.433  0.1304 -0.7081  1.3104
 3215SOL    HW2 9645   5.865   3.408   3.524  0.3610 -0.9585  1.1011
 3216SOL     OW 9646   2.363   5.004   2.944 -0.1703  0.1141  0.2044
 3216SOL    HW1 9647   2.391   4.961   3.024  1.3410 -0.2153 -0.4603
 3216SOL    HW2 9648   2.301   5.070   2.972 -2.4465 -2.3113  1.2928
 3217SOL     OW 9649   1.976   2.903   1.770  0.1664 -0.0622  0.0587
 3217SOL    HW1 9650   2.042   2.838   1.794  0.1198 -0.4099 -0.7261
 3217SOL    HW2 9651   1.964   2.955   1.850  1.6088  0.1982  0.1399
 3218SOL     OW 9652   3.106   0.609   3.954  0.0771  0.0523 -0.2791
 3218SOL    HW1 9653   3.140   0.659   3.880  2.8632  0.2640  1.0340
 3218SOL    HW2 9654   3.090   0.674   4.023  2.2533 -0.5680  0.9136
 3219SOL     OW 9655   2.535   2.587   3.312  0.4307  0.5535 -0.2396
 3219SOL    HW1 9656   2.629   2.574   3.314  0.2311 -1.2555 -0.3908
 3219SOL    HW2 9657   2.506   2.541   3.233 -0.8275 -1.2946  1.2125
 3220SOL     OW 9658   2.057   1.377   3.959  0.1227  0.5409 -0.0190
 3220SOL    HW1 9659   2.139   1.388   3.912 -0.3130 -1.3878 -1.3340
 3220SOL    HW2 9660   1.996   1.438   3.917  0.5864  1.2280  0.2886
 3221SOL     OW 9661   1.929   4.194   3.006 -0.6998  0.0533 -0.1341
 3221SOL    HW1 9662   2.012   4.204   2.959  0.1688  0.4803  1.3952
 3221SOL    HW2 9663   1.951   4.215   3.097 -2.3542 -0.4975  0.4275
 3222SOL     OW 9664   3.883   0.265   3.223 -0.2448 -0.0526 -0.2597
 3222SOL    HW1 9665   3.961   0.257   3.278 -1.0216  1.5535  1.1156
 3222SOL    HW2 9666   3.809   0.262   3.284 -1.1279  1.7967 -1.1823
 3223SOL     OW 9667   3.994   1.137   5.802 -0.2428 -0.0016 -0.1156
 3223SOL    HW1 9668   3.958   1.222   5.776  0.2152 -0.3556 -2.0506
 3223SOL    HW2 9669   3.984   1.082   5.724 -0.1424 -1.6034  0.9650
 3224SOL     OW 9670   2.495   4.311   0.979  0.3511  0.3754 -0.7326
 3224SOL    HW1 9671   2.587   4.287   0.964 -0.2113 -2.2212 -0.5289
 3224SOL    HW2 9672   2.486   4.317   1.074  0.7302  2.7997 -0.7851
 3225SOL     OW 9673   2.722   0.220   2.618 -0.3161 -0.1248  0.1019
 3225SOL    HW1 9674   2.758   0.284   2.556 -0.6599  0.5727  0.6053
 3225SOL    HW2 9675   2.800   0.179   2.658 -0.0844 -1.2083 -1.3848
 3226SOL     OW 9676   3.372   4.951   1.988  0.3902 -0.1614 -0.6590
 3226SOL    HW1 9677   3.312   4.877   1.982  1.1524 -0.9625  0.9329
 3226SOL    HW2 9678   3.343   5.000   2.065  1.0166  0.1357 -0.6016
 3227SOL     OW 9679   1.620   2.049   2.592 -0.1910 -0.1456  0.4585
 3227SOL    HW1 9680   1.648   2.063   2.682  4.1780  1.4625 -0.9020
 3227SOL    HW2 9681   1.683   1.986   2.556 -2.4171 -1.5485 -1.2684
 3228SOL     OW 9682   4.266   5.486   2.893  0.8789 -0.1566 -0.1221
 3228SOL    HW1 9683   4.340   5.517   2.945  1.0384 -0.5167 -0.1328
 3228SOL    HW2 9684   4.193   5.541   2.920  1.0356 -0.1305  0.2482
 3229SOL     OW 9685   2.732   2.638   4.014 -0.3377 -0.2801 -0.0422
 3229SOL    HW1 9686   2.709   2.546   4.000 -1.0915 -0.2854  1.0836
 3229SOL    HW2 9687   2.649   2.681   4.033 -0.0215  0.6867 -0.7822
 3230SOL     OW 9688   3.909   2.488   1.016  0.0610 -0.3718  0.1689
 3230SOL    HW1 9689   3.963   2.455   1.088  1.1020  1.2850  0.1774
 3230SOL    HW2 9690   3.936   2.578   1.004 -1.4002 -0.0551 -1.1015
 3231SOL     OW 9691   3.758   1.156   2.365  0.6677 -0.0683 -0.2605
 3231SOL    HW1 9692   3.850   1.172   2.388  0.5698 -0.9668  0.8540
 3231SOL    HW2 9693   3.715   1.240   2.381  0.9802 -0.1240  0.9963
 3232SOL     OW 9694   4.898   3.770   1.885  0.5638 -0.1403  1.1215
 3232SOL    HW1 9695   4.987   3.765   1.920  1.3599  1.3998 -0.5100
 3232SOL    HW2 9696   4.874   3.679   1.866  2.4589 -0.4650  0.0777
 3233SOL     OW 9697   1.008   2.568   0.594 -0.7492  0.3153  0.1931
 3233SOL    HW1 9698   1.068   2.641   0.610 -0.3512 -0.3066  1.6402
 3233SOL    HW2 9699   0.993   2.570   0.499 -0.4837  2.0582  0.1528
 3234SOL     OW 9700   1.248   1.253   1.685  0.6161 -0.4985 -0.5635
 3234SOL    HW1 9701   1.278   1.343   1.696 -0.8460  0.0549 -0.8602
 3234SOL    HW2 9702   1.326   1.200   1.701  1.3132  0.7652  0.4608
 3235SOL     OW 9703   2.491   3.201   3.804  0.0532 -0.4437 -0.5318
 3235SOL    HW1 9704   2.473   3.111   3.776  0.4193 -1.5107  2.2722
 3235SOL    HW2 9705   2.527   3.191   3.892 -2.1667  2.5745  0.8944
 3236SOL     OW 9706   2.709   0.438   2.391  0.2059  0.3592 -0.5185
 3236SOL    HW1 9707   2.757   0.370   2.344  1.1582  2.0212 -2.0985
 3236SOL    HW2 9708   2.626   0.447   2.344 -0.9627 -1.2353  1.0991
 3237SOL     OW 9709   5.687   4.519   1.267 -0.0100 -0.5270 -0.3379
 3237SOL    HW1 9710   5.603   4.479   1.289 -0.2813  1.0901  1.7851
 3237SOL    HW2 9711   5.741   4.509   1.345  1.2478 -0.0989 -1.1075
 3238SOL     OW 9712   0.820   1.837   1.971  0.2636  0.1788  0.1027
 3238SOL    HW1 9713   0.794   1.847   1.879 -0.4272 -1.0369  0.1475
 3238SOL    HW2 9714   0.756   1.776   2.007  1.2945 -0.3517  1.0723
 3239SOL     OW 9715   1.419   1.508   1.235 -0.3775  0.1702  0.1760
 3239SOL    HW1 9716   1.416   1.603   1.241  0.1486  0.1300  1.2371
 3239SOL    HW2 9717   1.327   1.481   1.239 -0.6580  0.6889 -1.7329
 3240SOL     OW 9718   4.562   3.693   2.064 -0.3743  0.1435 -0.5055
 3240SOL    HW1 9719   4.568   3.779   2.021  0.4570  0.0619 -0.5641
 3240SOL    HW2 9720   4.501   3.708   2.137  0.0839  0.8967 -0.2607
 3241SOL     OW 9721   2.766   1.684   4.379 -0.0245 -0.4917 -0.5450
 3241SOL    HW1 9722   2.777   1.778   4.370 -0.8454 -0.5336 -2.4179
 3241SOL    HW2 9723   2.854   1.650   4.391  0.2288  0.5349  0.7663
 3242SOL     OW 9724   2.289   1.955   5.705 -0.5852 -0.2640  0.3289
 3242SOL    HW1 9725   2.290   2.048   5.682 -2.7609 -0.9260 -3.0646
 3242SOL    HW2 9726   2.344   1.913   5.638 -0.9143 -1.5970  0.8690
 3243SOL     OW 9727   1.646   5.257   2.490  0.4268  0.2643 -0.0234
 3243SOL    HW1 9728   1.673   5.207   2.413  1.9010  0.4848  0.3239
 3243SOL    HW2 9729   1.726   5.268   2.541  0.6856  4.5876 -0.9836
 3244SOL     OW 9730   2.397   5.859   2.994 -0.4582  0.2399 -0.0433
 3244SOL    HW1 9731   2.364   5.948   2.979  0.0466  0.4232 -0.0878
 3244SOL    HW2 9732   2.440   5.836   2.912  0.5549  0.4678  0.4078
 3245SOL     OW 9733   2.777   2.579   5.350  0.2196  0.5771  0.7093
 3245SOL    HW1 9734   2.859   2.571   5.400  1.5492  2.5705 -1.0246
 3245SOL    HW2 9735   2.750   2.670   5.362  0.0008  0.8173 -1.2853
 3246SOL     OW 9736   0.061   5.444   5.935 -0.3605  0.0378  0.1492
 3246SOL    HW1 9737   0.007   5.367   5.956 -1.0088  0.8530  1.6675
 3246SOL    HW2 9738   0.006   5.518   5.960  1.1957  0.9243  1.1107
 3247SOL     OW 9739   0.472   3.687   0.838 -0.0243 -0.1548  0.0434
 3247SOL    HW1 9740   0.471   3.639   0.921  0.5364  0.3290  0.3407
 3247SOL    HW2 9741   0.433   3.772   0.859  0.4773  0.1144 -0.0854
 3248SOL     OW 9742   3.673   0.429   3.353  0.1024  0.0211  0.2483
 3248SOL    HW1 9743   3.585   0.400   3.378  0.4388 -0.9053  0.4159
 3248SOL    HW2 9744   3.661   0.474   3.269 -0.5486  0.0069  0.3298
 3249SOL     OW 9745   0.405   4.436   0.984 -0.8537 -0.2364  0.1481
 3249SOL    HW1 9746   0.388   4.443   0.890 -1.0767  1.6552  0.2912
 3249SOL    HW2 9747   0.501   4.436   0.990 -0.8375 -0.2277 -0.0734
 3250SOL     OW 9748   1.425   4.674   2.247 -0.0223  0.4323 -0.5956
 3250SOL    HW1 9749   1.433   4.762   2.284  1.6812  0.0683 -0.0261
 3250SOL    HW2 9750   1.463   4.616   2.313 -0.4335 -0.6705 -1.2895
 3251SOL     OW 9751   2.289   0.897   1.060  0.2545 -0.7064  0.2521
 3251SOL    HW1 9752   2.267   0.983   1.096 -1.0698 -0.9707  0.1196
 3251SOL    HW2 9753   2.298   0.913   0.966  0.1989 -0.6792  0.2512
 3252SOL     OW 9754   5.831   4.750   4.736 -0.2446  0.0382  0.0189
 3252SOL    HW1 9755   5.919   4.733   4.768 -0.2674 -2.0077 -0.8490
 3252SOL    HW2 9756   5.843   4.784   4.648 -0.3128  0.0163  0.0011
 3253SOL     OW 9757   4.782   0.419   5.858 -0.1219 -0.3532 -0.4738
 3253SOL    HW1 9758   4.859   0.471   5.883  0.2641 -0.3202 -1.6558
 3253SOL    HW2 9759   4.730   0.478   5.804 -1.5542 -0.0214  1.1781
 3254SOL     OW 9760   2.262   2.539   0.329  0.3621 -1.1011  0.4206
 3254SOL    HW1 9761   2.272   2.597   0.404  1.5052 -2.0241  1.0097
 3254SOL    HW2 9762   2.168   2.538   0.312  0.0449 -1.0459  1.9919
 3255SOL     OW 9763   0.773   1.718   3.742 -0.0613 -0.0907  0.1029
 3255SOL    HW1 9764   0.701   1.665   3.709 -0.2990 -0.5977  1.3879
 3255SOL    HW2 9765   0.851   1.666   3.723 -0.1961 -0.3844  0.3397
 3256SOL     OW 9766   4.329   0.076   3.562 -1.2585  0.0795 -0.2347
 3256SOL    HW1 9767   4.299   0.115   3.644 -0.4270 -2.4499  1.4059
 3256SOL    HW2 9768   4.250   0.068   3.508 -2.3678 -0.5710  1.4004
 3257SOL     OW 9769   2.807   0.770   0.461 -0.1119 -0.2422 -0.0381
 3257SOL    HW1 9770   2.874   0.834   0.440  1.3151 -1.9618 -0.9504
 3257SOL    HW2 9771   2.778   0.793   0.549 -0.3249  2.1625 -0.6628
 3258SOL     OW 9772   2.825   4.059   1.175 -0.2453  0.5414  0.8968
 3258SOL    HW1 9773   2.880   4.119   1.225 -2.3135  3.0212  0.4237
 3258SOL    HW2 9774   2.822   4.098   1.087 -1.1168 -0.6578  0.3650
 3259SOL     OW 9775   5.777   1.735   3.510 -1.0778 -0.0481 -0.4672
 3259SOL    HW1 9776   5.694   1.745   3.463  0.0016  0.7508 -2.3163
 3259SOL    HW2 9777   5.778   1.807   3.573 -1.9524 -0.3139 -0.1316
 3260SOL     OW 9778   3.093   0.865   0.082 -0.0329  0.2706  0.5012
 3260SOL    HW1 9779   3.074   0.878  -0.011  0.3225 -0.7912  0.2649
 3260SOL    HW2 9780   3.186   0.845   0.084 -0.0587  0.2104  1.0866
 3261SOL     OW 9781   1.606   3.409   3.904 -0.5107  0.2622  0.2527
 3261SOL    HW1 9782   1.650   3.491   3.926 -1.3621  1.2560 -1.5233
 3261SOL    HW2 9783   1.516   3.421   3.937 -1.1787  0.8750 -1.6891
 3262SOL     OW 9784   3.247   2.512   1.574  0.4328  0.0115 -0.0474
 3262SOL    HW1 9785   3.214   2.553   1.493 -0.0256 -0.0429  0.1118
 3262SOL    HW2 9786   3.330   2.556   1.590 -0.1052  0.9838  0.1839
 3263SOL     OW 9787   3.424   4.436   3.785  0.6565 -0.6059  0.0228
 3263SOL    HW1 9788   3.370   4.424   3.863  0.3877  0.4340  0.0113
 3263SOL    HW2 9789   3.514   4.433   3.817  0.5551  2.2170  0.8200
 3264SOL     OW 9790   2.912   2.245   1.430 -0.0560 -0.8661  0.6651
 3264SOL    HW1 9791   2.996   2.264   1.388 -0.9096  1.1225 -0.2849
 3264SOL    HW2 9792   2.885   2.161   1.392  0.6484 -0.6245 -0.4042
 3265SOL     OW 9793   1.586   1.070   1.404 -0.8442  0.4374 -0.2454
 3265SOL    HW1 9794   1.493   1.047   1.400 -0.8691  0.4423  0.2679
 3265SOL    HW2 9795   1.587   1.166   1.403 -0.8695  0.4442  0.2017
 3266SOL     OW 9796   3.035   0.196   3.358  0.0440  0.8713 -0.1915
 3266SOL    HW1 9797   3.035   0.272   3.417  1.0206  0.8500 -0.1365
 3266SOL    HW2 9798   3.126   0.191   3.327  0.1439 -0.6323  0.2663
 3267SOL     OW 9799   1.370   2.732   2.200  0.3460  0.5444 -0.2844
 3267SOL    HW1 9800   1.426   2.706   2.127  1.1024  1.0006  0.1173
 3267SOL    HW2 9801   1.293   2.771   2.158  1.0104  1.2983 -0.8554
 3268SOL     OW 9802   1.867   1.595   2.776  0.0847 -0.3078 -0.2507
 3268SOL    HW1 9803   1.842   1.615   2.686 -1.0660 -1.3088 -0.1770
 3268SOL    HW2 9804   1.906   1.508   2.772  0.2989 -0.2355  0.1824
 3269SOL     OW 9805   3.203   3.500   5.479 -0.5582  0.1128  0.0061
 3269SOL    HW1 9806   3.280   3.532   5.432  0.5629  1.1537  2.3795
 3269SOL    HW2 9807   3.137   3.569   5.468 -0.6893 -0.1423 -0.8737
 3270SOL     OW 9808   0.651   2.095   1.825 -0.2383 -0.6067  0.2479
 3270SOL    HW1 9809   0.667   2.113   1.732 -1.3121 -1.7531 -0.1801
 3270SOL    HW2 9810   0.731   2.126   1.869  0.0496  0.4711 -0.9779
 3271SOL     OW 9811   3.688   2.534   2.637  0.0435  0.2478  0.7730
 3271SOL    HW1 9812   3.731   2.459   2.679  1.9776  0.6278 -0.4122
 3271SOL    HW2 9813   3.606   2.544   2.685 -1.1620 -3.6935 -0.0727
 3272SOL     OW 9814   5.073   2.766   0.444  0.5284  0.1435  0.4807
 3272SOL    HW1 9815   5.011   2.818   0.393  0.9898  0.1800 -0.0492
 3272SOL    HW2 9816   5.017   2.714   0.502 -0.2208 -1.7195 -1.7253
 3273SOL     OW 9817   0.829   3.491   4.980  0.1880  0.1960 -0.4821
 3273SOL    HW1 9818   0.845   3.405   5.020  1.2160  0.1345 -1.0026
 3273SOL    HW2 9819   0.858   3.482   4.890 -0.9401  0.7157 -0.9217
 3274SOL     OW 9820   1.214   5.594   1.524  0.1260  0.2292 -0.1928
 3274SOL    HW1 9821   1.284   5.536   1.494 -0.6203 -1.4590  1.1267
 3274SOL    HW2 9822   1.259   5.669   1.562  1.2733 -1.0164  0.9947
 3275SOL     OW 9823   2.243   5.077   5.304  0.6123 -0.6687  0.6071
 3275SOL    HW1 9824   2.325   5.121   5.282  0.1847 -0.0245  0.2902
 3275SOL    HW2 9825   2.206   5.051   5.220  0.2798 -0.5699  0.7200
 3276SOL     OW 9826   1.527   1.722   3.812  0.0193  0.0702  0.1227
 3276SOL    HW1 9827   1.578   1.717   3.732  0.0643 -0.4261  0.1776
 3276SOL    HW2 9828   1.586   1.690   3.880 -0.5199 -0.9953  0.1100
 3277SOL     OW 9829   0.249   5.901   1.875  1.1722 -0.7070  0.4487
 3277SOL    HW1 9830   0.325   5.959   1.878  0.3946  0.4251 -0.9468
 3277SOL    HW2 9831   0.210   5.909   1.962  1.2486  0.6478  0.3770
 3278SOL     OW 9832   0.778   2.098   4.113  0.2769  0.2869  0.2602
 3278SOL    HW1 9833   0.823   2.017   4.089 -1.2973 -0.8107  0.8596
 3278SOL    HW2 9834   0.839   2.168   4.087  1.3657 -1.0406 -0.9374
 3279SOL     OW 9835   3.423   0.483   2.200 -0.3869  0.1940 -0.6962
 3279SOL    HW1 9836   3.344   0.430   2.195 -1.3334  1.6817 -2.9467
 3279SOL    HW2 9837   3.421   0.521   2.288 -1.1580 -1.2149 -0.0663
 3280SOL     OW 9838   4.938   0.814   1.532 -0.0949  0.2627 -0.2426
 3280SOL    HW1 9839   4.928   0.765   1.613  1.1239  0.1092 -0.1617
 3280SOL    HW2 9840   4.877   0.773   1.470 -3.0713  2.0605  1.2762
 3281SOL     OW 9841   2.939   0.300   1.698 -0.0335 -0.7249  0.1332
 3281SOL    HW1 9842   3.000   0.266   1.633  1.2994 -1.1186  1.5417
 3281SOL    HW2 9843   2.891   0.369   1.652  2.9863  1.1670 -0.4907
 3282SOL     OW 9844   4.421   4.576   1.435  0.1116  0.0354 -0.3502
 3282SOL    HW1 9845   4.511   4.562   1.464 -0.3112 -2.1461  0.0633
 3282SOL    HW2 9846   4.367   4.537   1.503 -1.1471  0.5733 -0.9944
 3283SOL     OW 9847   1.114   3.872   3.798  0.4023  0.0124  0.4301
 3283SOL    HW1 9848   1.049   3.837   3.737  1.5057  0.1190 -0.8299
 3283SOL    HW2 9849   1.126   3.802   3.863 -1.7703  0.4123  1.3722
 3284SOL     OW 9850   2.247   0.860   3.360  0.3762  0.4234  0.2800
 3284SOL    HW1 9851   2.309   0.797   3.394  0.1132  0.7432  1.3880
 3284SOL    HW2 9852   2.178   0.807   3.320  1.2307  0.0684 -0.7725
 3285SOL     OW 9853   3.699   1.779   0.020  0.0249  0.6193 -0.1965
 3285SOL    HW1 9854   3.788   1.742   0.024 -0.7651 -1.3046  0.7231
 3285SOL    HW2 9855   3.654   1.742   0.095 -1.9571  0.4732 -1.3871
 3286SOL     OW 9856   3.914   2.400   3.231 -0.3642  0.0917  0.1191
 3286SOL    HW1 9857   3.996   2.437   3.265 -0.8862  0.8567  0.5708
 3286SOL    HW2 9858   3.849   2.469   3.245 -0.7978  0.0950 -1.6170
 3287SOL     OW 9859   4.635   3.780   1.284 -0.3245 -0.4078  0.1935
 3287SOL    HW1 9860   4.562   3.842   1.292  0.2548  0.0950  2.1272
 3287SOL    HW2 9861   4.593   3.694   1.284 -0.9229 -0.1517  1.9613
 3288SOL     OW 9862   2.860   5.185   2.418 -0.1267  0.4456  0.0374
 3288SOL    HW1 9863   2.907   5.201   2.337  0.8217  0.7121  0.6203
 3288SOL    HW2 9864   2.787   5.128   2.394  0.6555 -0.1948 -0.8308
 3289SOL     OW 9865   2.352   2.608   0.796  0.4535  0.1053 -0.6642
 3289SOL    HW1 9866   2.279   2.549   0.780 -0.3879  0.3128  1.9672
 3289SOL    HW2 9867   2.424   2.550   0.822 -0.0715  0.1196  0.9117
 3290SOL     OW 9868   4.160   0.246   4.595 -0.0241  0.2792 -0.2036
 3290SOL    HW1 9869   4.167   0.257   4.500  0.5311 -0.7608 -0.3036
 3290SOL    HW2 9870   4.206   0.164   4.612 -0.3097  0.3490  0.9429
 3291SOL     OW 9871   5.824   2.563   2.041 -0.2736 -0.3140 -0.6826
 3291SOL    HW1 9872   5.882   2.548   1.967  1.1535  0.0781  0.3123
 3291SOL    HW2 9873   5.755   2.498   2.031 -0.3557 -0.0092 -2.5578
 3292SOL     OW 9874   3.238   0.920   5.698  0.1892 -0.7630  0.5885
 3292SOL    HW1 9875   3.316   0.963   5.732 -0.2478 -1.9361  3.3446
 3292SOL    HW2 9876   3.165   0.966   5.740 -0.6074 -0.3776 -1.1139
 3293SOL     OW 9877   0.896   3.127   3.710  0.3871 -0.6379 -0.0582
 3293SOL    HW1 9878   0.880   3.035   3.690  0.3913 -1.1566  2.1191
 3293SOL    HW2 9879   0.978   3.148   3.666 -0.9535 -0.8272 -2.8872
 3294SOL     OW 9880   4.467   5.518   3.138  0.2485 -0.3724  0.6817
 3294SOL    HW1 9881   4.411   5.494   3.212 -0.3013  0.5747  0.5886
 3294SOL    HW2 9882   4.543   5.559   3.178 -0.2270  0.4934  0.7229
 3295SOL     OW 9883   0.957   3.741   3.594 -0.1670  0.0179  0.2532
 3295SOL    HW1 9884   0.890   3.672   3.593 -1.5780  1.3324  0.1272
 3295SOL    HW2 9885   1.039   3.694   3.582 -1.1273 -1.5912 -0.4522
 3296SOL     OW 9886   1.403   1.522   2.804 -0.4925 -1.0005 -0.8539
 3296SOL    HW1 9887   1.467   1.451   2.797  0.3196 -0.5518  1.2323
 3296SOL    HW2 9888   1.455   1.602   2.791 -0.9831 -0.6878 -0.9230
 3297SOL     OW 9889   5.704   4.485   3.699 -0.0143 -0.2554 -1.2887
 3297SOL    HW1 9890   5.712   4.555   3.764 -1.5956 -0.5558 -0.7214
 3297SOL    HW2 9891   5.791   4.479   3.660  0.6100  0.8719 -0.1684
 3298SOL     OW 9892   3.599   3.045   2.116 -0.7983 -0.4703  0.2709
 3298SOL    HW1 9893   3.689   3.065   2.141 -0.4377 -0.2663 -1.0737
 3298SOL    HW2 9894   3.577   2.966   2.165 -0.8709  0.9555  2.7185
 3299SOL     OW 9895   4.691   2.802   3.516 -0.5106  0.3085  0.0783
 3299SOL    HW1 9896   4.616   2.811   3.457 -0.2300 -0.3338 -0.3963
 3299SOL    HW2 9897   4.653   2.793   3.603 -0.8979  4.2850  0.5112
 3300SOL     OW 9898   5.135   0.193   2.136  0.2378 -0.0373  0.0509
 3300SOL    HW1 9899   5.181   0.109   2.140  1.1698  0.4505 -0.1098
 3300SOL    HW2 9900   5.139   0.218   2.044 -1.1054 -0.3816 -0.1173
 3301SOL     OW 9901   3.922   1.896   4.068  0.0634 -0.1786  0.0950
 3301SOL    HW1 9902   3.859   1.917   4.137 -0.9847  1.4734 -1.2871
 3301SOL    HW2 9903   4.004   1.936   4.097 -0.0039 -0.6545  0.9804
 3302SOL     OW 9904   1.330   2.698   0.634  0.6981 -0.0537 -0.5713
 3302SOL    HW1 9905   1.400   2.650   0.589  0.2504 -1.6116  0.3239
 3302SOL    HW2 9906   1.354   2.693   0.727  0.8453  1.8453 -0.4736
 3303SOL     OW 9907   2.406   2.011   1.798 -0.3781 -0.4898  0.5294
 3303SOL    HW1 9908   2.382   2.091   1.751  0.1678  0.1020  1.2309
 3303SOL    HW2 9909   2.499   2.022   1.818  0.7186 -2.8861 -2.4521
 3304SOL     OW 9910   2.065   0.758   5.982  0.4777 -0.2062  0.1259
 3304SOL    HW1 9911   2.156   0.786   5.975  0.6046 -1.0177 -2.3796
 3304SOL    HW2 9912   2.038   0.742   5.891 -1.7345 -1.3403  0.9203
 3305SOL     OW 9913   3.097   3.392   1.286 -0.0287 -0.3346  0.0939
 3305SOL    HW1 9914   3.164   3.380   1.354 -1.8129 -1.6136  1.7619
 3305SOL    HW2 9915   3.111   3.319   1.226 -0.9504 -1.6467  1.4105
 3306SOL     OW 9916   1.817   1.765   1.764 -0.0441 -0.0339  0.6766
 3306SOL    HW1 9917   1.888   1.815   1.806 -0.3540  0.5261  0.5355
 3306SOL    HW2 9918   1.737   1.811   1.790 -0.3551 -0.6599  0.8252
 3307SOL     OW 9919   2.526   2.814   4.028  0.5529 -0.5575 -0.0055
 3307SOL    HW1 9920   2.570   2.877   3.970  0.3132  1.0690  1.4845
 3307SOL    HW2 9921   2.433   2.829   4.012  0.4968 -1.1222 -0.2206
 3308SOL     OW 9922   0.070   4.850   5.776  0.4909 -0.1800  0.0675
 3308SOL    HW1 9923   0.020   4.925   5.744  0.0522  0.4822  2.1766
 3308SOL    HW2 9924   0.036   4.833   5.864  0.1923 -3.2422 -0.5137
 3309SOL     OW 9925   1.839   3.108   2.801  0.3928  0.1227 -0.0988
 3309SOL    HW1 9926   1.880   3.166   2.865  1.3578  0.1579 -0.7292
 3309SOL    HW2 9927   1.890   3.120   2.721 -0.4663 -0.3105 -0.7372
 3310SOL     OW 9928   2.833   2.277   0.803  0.2225  0.4769  0.3216
 3310SOL    HW1 9929   2.864   2.305   0.890 -0.0340 -0.0280  0.5835
 3310SOL    HW2 9930   2.908   2.231   0.765  0.0969  0.0610  0.5756
 3311SOL     OW 9931   3.011   1.389   2.937 -0.1076  0.0806 -0.3569
 3311SOL    HW1 9932   3.039   1.416   3.025  0.4913  0.8612 -0.7667
 3311SOL    HW2 9933   3.006   1.471   2.888  1.8970 -0.5155 -1.7012
 3312SOL     OW 9934   4.581   3.200   2.247 -0.6454 -0.0740 -0.0506
 3312SOL    HW1 9935   4.673   3.208   2.222  0.2210 -0.4692  2.7744
 3312SOL    HW2 9936   4.560   3.108   2.231  0.5002 -0.8231  2.3715
 3313SOL     OW 9937   2.088   4.750   1.389 -0.2867 -0.4804 -0.0119
 3313SOL    HW1 9938   2.024   4.720   1.324 -0.4456 -0.9208  0.3424
 3313SOL    HW2 9939   2.128   4.827   1.349 -1.4060  0.1172 -0.0239
 3314SOL     OW 9940   2.123   2.438   0.733 -0.0478  0.1006 -0.2476
 3314SOL    HW1 9941   2.046   2.401   0.775 -0.4904  0.6485 -0.5736
 3314SOL    HW2 9942   2.120   2.406   0.643 -1.1241  1.8962 -0.9027
 3315SOL     OW 9943   3.674   2.002   4.343 -0.0886 -0.5293  0.0902
 3315SOL    HW1 9944   3.611   2.013   4.414  0.1204 -0.9603  0.3418
 3315SOL    HW2 9945   3.706   1.913   4.352  3.2966  0.7199  2.1895
 3316SOL     OW 9946   2.575   0.242   0.425  0.1437  0.1718 -0.7035
 3316SOL    HW1 9947   2.486   0.234   0.389 -0.1671  1.3153 -0.2432
 3316SOL    HW2 9948   2.604   0.152   0.439 -1.4020 -0.2243  0.2239
 3317SOL     OW 9949   2.074   1.106   1.018 -0.3957 -0.8390 -0.0363
 3317SOL    HW1 9950   1.995   1.096   0.964 -0.1756 -0.3200 -0.4617
 3317SOL    HW2 9951   2.146   1.079   0.961 -0.2187 -0.8826  0.2046
 3318SOL     OW 9952   0.625   2.584   5.807  0.1897 -0.2841 -0.1847
 3318SOL    HW1 9953   0.644   2.678   5.800  1.9355 -0.6637 -1.1204
 3318SOL    HW2 9954   0.618   2.569   5.902 -1.5268  0.9984 -0.0516
 3319SOL     OW 9955   2.659   5.976   0.498 -0.0432  0.0918  0.2909
 3319SOL    HW1 9956   2.694   5.891   0.474  0.2714  0.5536 -1.0054
 3319SOL    HW2 9957   2.637   5.969   0.591  1.9194 -0.7385  0.7231
 3320SOL     OW 9958   3.233   1.788   1.850 -0.4936  0.3693  0.0709
 3320SOL    HW1 9959   3.173   1.824   1.916 -0.4097 -0.8114  0.8207
 3320SOL    HW2 9960   3.289   1.861   1.826 -0.6694  0.8818  1.1577
 3321SOL     OW 9961   1.444   1.776   1.762 -0.2419  0.1422 -0.1297
 3321SOL    HW1 9962   1.495   1.850   1.797  1.2277 -0.7602 -0.2729
 3321SOL    HW2 9963   1.485   1.757   1.678 -1.2110 -0.2424 -0.5233
 3322SOL     OW 9964   1.030   3.026   2.453  0.0845 -0.4895 -0.4099
 3322SOL    HW1 9965   1.100   2.961   2.447 -2.1496 -3.0968 -0.3497
 3322SOL    HW2 9966   1.074   3.107   2.478  2.8603 -2.3458  1.2554
 3323SOL     OW 9967   1.121   0.884   3.802 -0.5927  0.2836  0.4617
 3323SOL    HW1 9968   1.201   0.831   3.805 -1.6477 -1.3797  0.4707
 3323SOL    HW2 9969   1.101   0.891   3.708 -1.3064 -0.7449  0.5115
 3324SOL     OW 9970   4.869   1.207   4.473  0.3999 -0.4144  0.7375
 3324SOL    HW1 9971   4.866   1.233   4.380 -0.7825 -1.5703  0.4262
 3324SOL    HW2 9972   4.925   1.273   4.514  1.5041 -0.2736 -0.9164
 3325SOL     OW 9973   1.095   2.481   5.994  0.1839  0.6407  0.1005
 3325SOL    HW1 9974   1.032   2.553   5.988  0.5913  0.9026 -2.5522
 3325SOL    HW2 9975   1.045   2.404   5.969  0.3259  0.4263  0.4777
 3326SOL     OW 9976   0.736   4.894   5.021 -0.0753  0.5935 -0.4750
 3326SOL    HW1 9977   0.690   4.812   5.003 -0.3354  1.0216 -1.8828
 3326SOL    HW2 9978   0.757   4.890   5.114 -0.8758 -0.6682 -0.3266
 3327SOL     OW 9979   4.866   4.479   0.503  0.3564  0.5728 -0.0051
 3327SOL    HW1 9980   4.923   4.553   0.482 -0.4256  1.3799  0.6461
 3327SOL    HW2 9981   4.814   4.509   0.578 -0.2262 -0.5088  0.0474
 3328SOL     OW 9982   3.385   2.081   4.405  0.0160 -0.0254  0.1217
 3328SOL    HW1 9983   3.436   2.095   4.485 -2.2789 -1.0781  1.8677
 3328SOL    HW2 9984   3.427   2.138   4.340  1.8586  1.0097  2.0972
 3329SOL     OW 9985   1.021   2.997   0.362 -0.2106 -0.1198 -0.2140
 3329SOL    HW1 9986   1.012   3.028   0.452 -0.6988 -1.4762  0.2409
 3329SOL    HW2 9987   1.096   2.937   0.366  0.2088  0.3559 -0.8701
 3330SOL     OW 9988   2.088   5.147   3.279 -0.1273  0.4713 -0.1453
 3330SOL    HW1 9989   2.010   5.201   3.296 -0.8684  0.0097 -1.8348
 3330SOL    HW2 9990   2.151   5.175   3.345 -1.4724  1.3802  0.8193
 3331SOL     OW 9991   2.100   2.194  -0.024 -0.2494  0.2180 -0.2107
 3331SOL    HW1 9992   2.059   2.171   0.060  0.1383 -0.9426 -0.3227
 3331SOL    HW2 9993   2.098   2.290  -0.026 -0.7549  0.2475  0.8779
 3332SOL     OW 9994   2.024   4.659   5.676  0.0565  0.1524  0.5263
 3332SOL    HW1 9995   2.098   4.599   5.683  0.3476  0.4409 -0.0942
 3332SOL    HW2 9996   1.952   4.612   5.718  0.3633 -0.4977  0.3370
 3333SOL     OW 9997   5.804   2.972   2.852  0.0019 -0.0628 -0.2789
 3333SOL    HW1 9998   5.713   3.000   2.842  0.0428  0.6136  1.0946
 3333SOL    HW2 9999   5.854   3.053   2.854  0.4631 -0.3625  0.5984
 3334SOL     OW10000   2.080   1.961   3.554 -0.2367 -0.0597 -0.2586
 3334SOL    HW110001   1.986   1.981   3.558  0.0955  1.6227  0.0089
 3334SOL    HW210002   2.106   1.985   3.465  0.4986  2.4601  0.5549
 3335SOL     OW10003   3.410   2.522   3.874 -0.0946 -0.5192 -0.0951
 3335SOL    HW110004   3.479   2.515   3.940  0.5233 -0.1843 -0.7038
 3335SOL    HW210005   3.332   2.488   3.918  0.6912 -1.9729  0.2390
 3336SOL     OW10006   2.684   0.931   5.618  1.0491 -0.3562 -0.6335
 3336SOL    HW110007   2.667   0.977   5.700  0.8963 -0.3734 -0.6557
 3336SOL    HW210008   2.604   0.942   5.567  1.2914  0.0024 -0.9452
 3337SOL     OW10009   1.235   0.160   2.617 -0.8747 -0.4218  0.8685
 3337SOL    HW110010   1.264   0.072   2.640 -0.0843  0.1337  2.1024
 3337SOL    HW210011   1.148   0.147   2.580  0.0122 -1.9111 -0.8618
 3338SOL     OW10012   3.540   2.391   3.113 -0.3378 -0.1134 -0.4343
 3338SOL    HW110013   3.471   2.452   3.140 -0.6400 -0.5207 -0.2706
 3338SOL    HW210014   3.561   2.417   3.023 -1.3992 -0.5967 -0.8439
 3339SOL     OW10015   0.633   2.427   4.698 -0.6810  0.4147 -0.3084
 3339SOL    HW110016   0.669   2.357   4.644 -0.1539 -0.1573  0.7532
 3339SOL    HW210017   0.540   2.403   4.709 -0.2011 -0.9384  1.2326
 3340SOL     OW10018   4.800   2.118   5.108 -0.4020  0.2309  0.0889
 3340SOL    HW110019   4.891   2.111   5.080 -0.5004  0.5179 -0.3083
 3340SOL    HW210020   4.754   2.151   5.031 -1.2247 -1.9797 -0.4626
 3341SOL     OW10021   2.524   4.245   3.423  0.2265  0.2556  0.4525
 3341SOL    HW110022   2.524   4.215   3.514 -1.9506  0.4976  0.5883
 3341SOL    HW210023   2.475   4.178   3.376  5.7537 -2.8284 -1.7728
 3342SOL     OW10024   3.812   4.118   4.835 -0.1852 -0.2305 -0.3141
 3342SOL    HW110025   3.848   4.032   4.857  3.2421  0.4547 -2.6137
 3342SOL    HW210026   3.804   4.118   4.740 -0.6956  1.7985 -0.3250
 3343SOL     OW10027   1.682   0.276   1.941 -0.6618 -0.4734 -0.4615
 3343SOL    HW110028   1.701   0.358   1.987 -1.5151 -0.6826  0.2950
 3343SOL    HW210029   1.661   0.303   1.851 -3.7003  0.5018  0.4042
 3344SOL     OW10030   3.777   3.221   0.547 -0.4564 -0.1762 -0.2784
 3344SOL    HW110031   3.853   3.252   0.498 -0.5128  0.4971  0.0456
 3344SOL    HW210032   3.806   3.139   0.586  0.4135  0.4922  0.5474
 3345SOL     OW10033   4.984   2.745   4.203 -0.4470  0.0453  0.2483
 3345SOL    HW110034   4.947   2.746   4.114 -1.2811  1.0540  0.5890
 3345SOL    HW210035   4.958   2.829   4.240 -2.4663 -1.4071  2.4073
 3346SOL     OW10036   2.516   1.337   2.134 -0.1338 -0.0468  0.0957
 3346SOL    HW110037   2.512   1.242   2.124 -0.2399  0.0161 -0.5020
 3346SOL    HW210038   2.428   1.367   2.112 -0.1563  0.1761  0.4844
 3347SOL     OW10039   5.473   4.140   4.408 -0.2422  0.5422 -0.2332
 3347SOL    HW110040   5.500   4.224   4.372  0.3877  0.3254 -0.2677
 3347SOL    HW210041   5.404   4.110   4.349  1.3339 -0.2008 -1.7822
 3348SOL     OW10042   3.595   2.287   0.322 -0.9620  0.3279  0.3146
 3348SOL    HW110043   3.595   2.338   0.241  0.5231 -1.2810 -0.7603
 3348SOL    HW210044   3.503   2.265   0.336 -1.1724  0.0352 -1.3342
 3349SOL     OW10045   2.962   2.528   4.117  0.7404  0.3471  0.6262
 3349SOL    HW110046   2.889   2.586   4.093  0.4141 -0.0111  0.7459
 3349SOL    HW210047   3.005   2.509   4.034 -0.2297 -0.6772  0.3365
 3350SOL     OW10048   1.679   2.993   5.923 -0.2396 -0.3796 -0.1930
 3350SOL    HW110049   1.611   2.957   5.979 -1.8092 -1.2652 -2.4837
 3350SOL    HW210050   1.634   3.058   5.869  0.8952 -0.4028 -1.2264
 3351SOL     OW10051   3.857   3.939   0.836  0.2383 -0.1890  0.4862
 3351SOL    HW110052   3.866   3.844   0.828  1.3776 -0.1378  1.0046
 3351SOL    HW210053   3.763   3.954   0.829 -0.0469 -1.4294  1.2181
 3352SOL     OW10054   1.719   1.899   2.929  0.3597 -0.2396  0.2847
 3352SOL    HW110055   1.765   1.827   2.972 -0.2115 -0.6181  0.2753
 3352SOL    HW210056   1.651   1.857   2.877 -0.5245  0.3271  0.9318
 3353SOL     OW10057   3.688   3.388   3.646  0.3047 -0.1246  0.3670
 3353SOL    HW110058   3.633   3.466   3.640  0.8830  0.2481 -0.3033
 3353SOL    HW210059   3.656   3.331   3.575  1.2448  0.4145 -0.5213
 3354SOL     OW10060   5.300   0.595   4.100  0.8705  0.6948 -0.1909
 3354SOL    HW110061   5.332   0.509   4.071  2.2307  0.8541  0.7726
 3354SOL    HW210062   5.245   0.625   4.028 -2.2024 -2.2901  0.6109
 3355SOL     OW10063   4.343   5.885   5.268  0.4412 -0.5017 -0.1453
 3355SOL    HW110064   4.437   5.900   5.279  0.3019 -0.4768  1.1966
 3355SOL    HW210065   4.321   5.820   5.334 -0.5795 -0.1263 -0.0976
 3356SOL     OW10066   3.086   2.001   0.032 -0.2116 -0.4165 -0.1440
 3356SOL    HW110067   3.037   1.931   0.075  0.6190 -1.4863 -0.8702
 3356SOL    HW210068   3.176   1.969   0.031  0.2073  0.7490 -0.3551
 3357SOL     OW10069   3.178   3.877   0.965 -0.3848  0.6188 -0.0323
 3357SOL    HW110070   3.253   3.898   0.910  0.6955 -1.2754  0.6369
 3357SOL    HW210071   3.183   3.940   1.037  0.1415  0.9788 -0.3776
 3358SOL     OW10072   1.717   1.521   0.703  0.0687  0.0342 -0.0829
 3358SOL    HW110073   1.761   1.573   0.635 -0.3926  0.9720  0.3072
 3358SOL    HW210074   1.780   1.518   0.775  0.0808  0.1023 -0.0902
 3359SOL     OW10075   3.463   4.756   1.506  0.1806 -0.4218  0.0066
 3359SOL    HW110076   3.382   4.805   1.520  0.3689 -0.2614  0.5606
 3359SOL    HW210077   3.461   4.731   1.413  1.2479  2.7710 -0.9992
 3360SOL     OW10078   3.332   0.177   2.768  0.6164  0.1116  0.7152
 3360SOL    HW110079   3.407   0.137   2.725 -0.2079  0.7379 -1.4408
 3360SOL    HW210080   3.277   0.103   2.793  0.8093 -0.2671  0.0559
 3361SOL     OW10081   2.202   4.265   2.853 -0.2626  0.3133  0.2547
 3361SOL    HW110082   2.237   4.265   2.941  0.2661  0.3306  0.0457
 3361SOL    HW210083   2.202   4.173   2.827  0.2046  0.3746  0.0297
 3362SOL     OW10084   1.177   1.286   2.238  0.1851 -0.1849 -0.0816
 3362SOL    HW110085   1.094   1.242   2.217  0.8292 -1.2110 -0.5850
 3362SOL    HW210086   1.240   1.248   2.176  1.1546  0.1243  0.6954
 3363SOL     OW10087   4.743   1.381   2.711 -0.4198  0.7850 -0.1682
 3363SOL    HW110088   4.690   1.303   2.728 -1.2536  1.8755  2.8174
 3363SOL    HW210089   4.795   1.392   2.791  1.7423  1.7724 -1.6169
 3364SOL     OW10090   4.320   3.657   3.095 -0.3900 -0.3828  0.9975
 3364SOL    HW110091   4.278   3.645   3.181  0.5210 -0.3398  1.4572
 3364SOL    HW210092   4.406   3.618   3.105 -0.4834 -0.9020 -0.0908
 3365SOL     OW10093   4.044   3.070   3.281 -0.1989 -0.0777 -0.0609
 3365SOL    HW110094   4.026   3.043   3.191 -1.5281  1.6426 -0.3642
 3365SOL    HW210095   4.063   3.163   3.275  1.5616 -0.3021  1.2449
 3366SOL     OW10096   3.104   4.442   4.491 -0.4230 -0.0808 -0.3233
 3366SOL    HW110097   3.062   4.378   4.435  1.3703 -0.8022 -0.9272
 3366SOL    HW210098   3.147   4.390   4.559  0.9676  0.4553 -0.7588
 3367SOL     OW10099   1.564   3.194   5.770 -0.4806  0.1909  0.2532
 3367SOL    HW110100   1.575   3.242   5.688 -1.6025  0.0437 -0.0052
 3367SOL    HW210101   1.477   3.220   5.802 -0.1843  0.0279  1.2546
 3368SOL     OW10102   4.912   1.715   4.442  0.5889 -0.2152  0.9497
 3368SOL    HW110103   4.863   1.643   4.482  0.3030 -0.6975 -0.2066
 3368SOL    HW210104   4.936   1.771   4.515 -0.6268 -0.6151  1.6993
 3369SOL     OW10105   3.549   1.370   4.609 -0.2930  0.0805  0.1164
 3369SOL    HW110106   3.465   1.332   4.634 -0.1359 -1.7271 -1.8337
 3369SOL    HW210107   3.613   1.325   4.664 -0.2964 -1.2125 -0.8874
 3370SOL     OW10108   1.524   1.327   2.609  0.2797  0.3245 -0.3562
 3370SOL    HW110109   1.452   1.265   2.594 -0.2459  0.6107  0.8685
 3370SOL    HW210110   1.515   1.392   2.540 -0.3402  0.0858 -0.5054
 3371SOL     OW10111   3.068   3.234   1.604 -0.5013  0.3314  0.2699
 3371SOL    HW110112   2.990   3.184   1.580 -0.0060 -0.8278  0.9764
 3371SOL    HW210113   3.044   3.325   1.588 -1.8627 -0.0288  0.1207
 3372SOL     OW10114   1.644   3.595   3.662 -0.0441  0.6407 -0.3252
 3372SOL    HW110115   1.654   3.531   3.591  0.2035 -0.4188  0.6178
 3372SOL    HW210116   1.703   3.563   3.731  0.6010  2.2800 -0.0709
 3373SOL     OW10117   2.837   1.303   5.825 -0.6939  0.2150  0.2066
 3373SOL    HW110118   2.741   1.307   5.822 -0.6603  2.4293  0.6797
 3373SOL    HW210119   2.867   1.377   5.772  0.7711 -0.4347  0.0685
 3374SOL     OW10120   2.366   1.548   3.499  0.1537 -0.5966 -0.3029
 3374SOL    HW110121   2.388   1.477   3.439 -0.2946 -0.7724 -0.2631
 3374SOL    HW210122   2.274   1.532   3.522  0.2334 -0.3576  0.1858
 3375SOL     OW10123   4.185   2.066   3.123  0.2018 -0.0403  0.7294
 3375SOL    HW110124   4.142   2.139   3.168  0.1454  0.9565 -0.8683
 3375SOL    HW210125   4.142   1.988   3.157 -1.6653  0.8202  0.4982
 3376SOL     OW10126   1.839   1.298   5.407 -0.3630  0.0157  0.3139
 3376SOL    HW110127   1.867   1.388   5.429 -0.3532  0.3372 -0.9472
 3376SOL    HW210128   1.806   1.305   5.317 -0.1565 -1.2901  0.1264
 3377SOL     OW10129   2.911   0.287   4.225  0.3113 -0.4290 -0.4010
 3377SOL    HW110130   2.977   0.272   4.158 -0.4342 -2.2664 -0.7776
 3377SOL    HW210131   2.904   0.204   4.272 -0.5610  0.2291  0.7069
 3378SOL     OW10132   1.277   3.928   3.302 -0.3543 -0.7265  0.4402
 3378SOL    HW110133   1.201   3.869   3.294 -0.3334 -0.6565 -0.3700
 3378SOL    HW210134   1.347   3.872   3.335 -0.8497 -0.7119  1.5499
 3379SOL     OW10135   4.673   1.049   2.522 -0.3564 -0.6354 -0.2492
 3379SOL    HW110136   4.725   1.109   2.468 -0.3176 -2.1428 -1.9888
 3379SOL    HW210137   4.630   1.105   2.586  1.3147  0.9794 -0.4570
 3380SOL     OW10138   1.137   1.361   0.885  0.6151  0.1022 -0.3924
 3380SOL    HW110139   1.093   1.282   0.853 -0.1787  0.4761 -0.2497
 3380SOL    HW210140   1.138   1.352   0.980  0.6249  0.2098 -0.3820
 3381SOL     OW10141   1.965   0.610   4.201  0.5829  0.2222  0.1940
 3381SOL    HW110142   1.953   0.651   4.116  0.3602  0.7742  0.4905
 3381SOL    HW210143   2.036   0.660   4.242  1.4893 -0.7588 -0.1146
 3382SOL     OW10144   4.092   2.404   2.384 -0.5193 -0.1851 -0.3354
 3382SOL    HW110145   4.176   2.438   2.354  0.5651 -1.8279  0.7194
 3382SOL    HW210146   4.048   2.481   2.422  1.5193  0.2728  1.2723
 3383SOL     OW10147   3.332   5.182   5.449  0.5068 -0.1171 -0.2995
 3383SOL    HW110148   3.330   5.151   5.359 -2.7197  2.1735 -1.2300
 3383SOL    HW210149   3.294   5.110   5.500  1.5718 -1.1108 -0.8670
 3384SOL     OW10150   3.639   1.527   3.988  0.0509 -0.1130  0.3677
 3384SOL    HW110151   3.726   1.499   3.961  0.4658 -2.6156  3.6575
 3384SOL    HW210152   3.653   1.576   4.069 -1.5344  0.9494  0.0665
 3385SOL     OW10153   3.148   5.347   2.644  0.5315 -0.4228 -0.3201
 3385SOL    HW110154   3.087   5.376   2.712  2.0451  1.7023  0.2230
 3385SOL    HW210155   3.135   5.252   2.639 -2.1106 -0.1868  0.4076
 3386SOL     OW10156   3.113   3.319   4.134 -0.2185 -0.5576  0.2337
 3386SOL    HW110157   3.076   3.401   4.100  0.8672 -0.0643  0.2078
 3386SOL    HW210158   3.116   3.261   4.059 -0.4915 -0.4398  0.1300
 3387SOL     OW10159   1.988   1.248   3.612 -0.3282  0.1043 -0.1201
 3387SOL    HW110160   2.068   1.208   3.579  1.9207  2.2739  2.2000
 3387SOL    HW210161   1.963   1.195   3.688  0.2305  0.6741  0.4720
 3388SOL     OW10162   3.286   2.219   4.862  0.1004 -0.1193  0.2633
 3388SOL    HW110163   3.202   2.179   4.883 -0.2297  0.5300  0.2043
 3388SOL    HW210164   3.267   2.274   4.786  0.8666 -0.9965 -0.5883
 3389SOL     OW10165   3.735   1.352   3.047  0.0509  0.8550  0.4662
 3389SOL    HW110166   3.712   1.411   3.119  0.0058  1.4572 -0.0328
 3389SOL    HW210167   3.651   1.329   3.007 -0.2154 -1.6828  2.2574
 3390SOL     OW10168   2.981   0.711   1.059 -0.6273  0.4824 -0.1525
 3390SOL    HW110169   3.014   0.682   0.974  0.6397 -2.7375  1.2883
 3390SOL    HW210170   3.045   0.776   1.088  0.5991 -0.5514 -0.4537
 3391SOL     OW10171   3.412   3.767   3.827 -0.2697  0.4090 -1.0069
 3391SOL    HW110172   3.337   3.793   3.773 -1.2158 -2.4778 -1.2727
 3391SOL    HW210173   3.451   3.694   3.779  0.1262 -0.8936  1.1807
 3392SOL     OW10174   2.861   3.476   5.761  0.2673 -0.4445  0.3337
 3392SOL    HW110175   2.825   3.438   5.681 -1.2559 -3.3317  2.2270
 3392SOL    HW210176   2.939   3.423   5.780 -0.1705 -0.7063  1.4595
 3393SOL     OW10177   2.658   4.561   3.826 -0.2044 -0.2194 -0.2283
 3393SOL    HW110178   2.751   4.565   3.849  0.3477 -2.8939 -1.5442
 3393SOL    HW210179   2.626   4.483   3.872 -1.2176 -0.6183 -1.5379
 3394SOL     OW10180   4.432   3.797   2.888  0.2374 -0.1538  0.1171
 3394SOL    HW110181   4.392   3.737   2.951  2.4728 -0.6980  1.1212
 3394SOL    HW210182   4.518   3.818   2.926  0.8256  1.1556 -1.7712
 3395SOL     OW10183   3.270   2.372   4.650  0.5115  0.5839  0.3408
 3395SOL    HW110184   3.256   2.465   4.636  0.7365  0.5307 -0.2866
 3395SOL    HW210185   3.190   2.330   4.618  1.3332  0.4035 -1.6763
 3396SOL     OW10186   4.033   1.151   2.428 -0.0870  0.2253  0.3516
 3396SOL    HW110187   4.098   1.147   2.497  1.2479 -0.0719 -0.8811
 3396SOL    HW210188   4.037   1.066   2.384  0.8396  1.1921 -1.5896
 3397SOL     OW10189   2.991   1.249   5.332 -0.1253  0.2549  0.0386
 3397SOL    HW110190   3.045   1.233   5.409  1.8831  1.6646 -0.9878
 3397SOL    HW210191   3.034   1.201   5.261 -1.9570 -1.0508 -0.2599
 3398SOL     OW10192   5.515   5.818   3.931  0.4275 -0.3656  0.3378
 3398SOL    HW110193   5.484   5.736   3.893  1.3888 -0.8553  0.5875
 3398SOL    HW210194   5.580   5.791   3.997  0.7575  0.5900  0.4149
 3399SOL     OW10195   5.318   3.863   3.185  0.9628  0.6329 -0.1161
 3399SOL    HW110196   5.307   3.891   3.276 -0.2571  2.6814 -0.8286
 3399SOL    HW210197   5.236   3.819   3.164 -0.6679  3.9062 -1.3810
 3400SOL     OW10198   4.639   2.282   2.383 -0.5494 -0.0269 -0.4051
 3400SOL    HW110199   4.636   2.378   2.383 -3.4381 -0.0065 -2.6301
 3400SOL    HW210200   4.652   2.258   2.291  1.7781 -1.8575  0.2938
 3401SOL     OW10201   3.371   2.912   2.740  0.3236 -0.2119  0.0520
 3401SOL    HW110202   3.324   2.982   2.694 -1.7322 -1.3770  0.2667
 3401SOL    HW210203   3.402   2.954   2.821 -0.5656  0.5628  0.0142
 3402SOL     OW10204   5.130   0.952   3.828 -0.0121 -0.5850 -0.1866
 3402SOL    HW110205   5.064   0.896   3.789 -1.0780  0.4077  0.1482
 3402SOL    HW210206   5.205   0.894   3.844 -0.3520 -1.4701 -1.6497
 3403SOL     OW10207   2.749   2.694   1.827 -0.1654  0.6775 -0.0658
 3403SOL    HW110208   2.752   2.631   1.756  0.4493  0.2868  0.2905
 3403SOL    HW210209   2.679   2.664   1.884 -0.3033  0.6855 -0.2319
 3404SOL     OW10210   3.295   2.488   4.195  0.0505 -0.2234  0.2687
 3404SOL    HW110211   3.203   2.503   4.172  0.1735  0.1304 -0.0113
 3404SOL    HW210212   3.308   2.536   4.276  0.9057  2.8752 -1.5210
 3405SOL     OW10213   4.498   2.358   5.191  0.2435  0.0450  0.2038
 3405SOL    HW110214   4.549   2.418   5.245  1.0930  0.2078 -0.7577
 3405SOL    HW210215   4.471   2.410   5.115  0.0023 -0.4756 -0.0790
 3406SOL     OW10216   5.662   5.725   4.143  0.6536  0.0610 -0.5688
 3406SOL    HW110217   5.717   5.668   4.090  0.5354 -0.7856  0.1950
 3406SOL    HW210218   5.665   5.687   4.230 -1.5076 -0.2798 -0.5994
 3407SOL     OW10219   4.085   3.297   5.114  0.0050  0.1699  0.4824
 3407SOL    HW110220   4.101   3.390   5.096 -0.3187  0.0280 -0.6266
 3407SOL    HW210221   3.992   3.285   5.096 -0.3611 -0.0074  2.3467
 3408SOL     OW10222   1.498   4.386   4.235 -0.0305 -0.1437 -0.6048
 3408SOL    HW110223   1.473   4.356   4.147 -0.2282  1.5657 -1.1708
 3408SOL    HW210224   1.419   4.428   4.268 -0.1711 -1.3530  0.7078
 3409SOL     OW10225   1.253   4.011   0.600 -0.1108  0.5210  0.1264
 3409SOL    HW110226   1.177   3.959   0.572 -0.2180 -0.5416  2.1308
 3409SOL    HW210227   1.225   4.102   0.592 -1.7718  0.1440  1.1601
 3410SOL     OW10228   4.154   1.542   4.045 -0.2582 -0.1311 -0.7012
 3410SOL    HW110229   4.226   1.490   4.081  1.6396  2.0533 -1.1135
 3410SOL    HW210230   4.120   1.591   4.119  0.1793  0.4962 -0.9106
 3411SOL     OW10231   2.209   0.099   5.603  0.4888  0.8734 -0.7002
 3411SOL    HW110232   2.175   0.163   5.542  0.0868  2.3997  1.0345
 3411SOL    HW210233   2.153   0.022   5.592  0.7188  0.9364 -2.5169
 3412SOL     OW10234   4.261   3.026   3.413  0.2654 -0.1612 -0.0526
 3412SOL    HW110235   4.181   3.018   3.361  0.1624  1.2336 -0.1412
 3412SOL    HW210236   4.316   3.086   3.364 -0.3284  2.2119  1.9759
 3413SOL     OW10237   2.473   3.292   0.584 -0.3622  0.0205 -0.6192
 3413SOL    HW110238   2.553   3.301   0.533 -1.0353 -1.3816 -2.0092
 3413SOL    HW210239   2.479   3.206   0.623  0.2747  1.1782  2.0275
 3414SOL     OW10240   2.154   3.004   5.307  0.2511  0.4062  0.2513
 3414SOL    HW110241   2.097   2.959   5.244  0.0499  1.0503 -0.0342
 3414SOL    HW210242   2.102   3.007   5.388  0.8063 -1.1151  0.7049
 3415SOL     OW10243   1.134   3.253   1.595  0.2913 -0.3779 -0.0309
 3415SOL    HW110244   1.086   3.181   1.636 -0.2993 -0.1835 -0.3645
 3415SOL    HW210245   1.118   3.328   1.652 -0.1215 -0.2242 -0.3446
 3416SOL     OW10246   3.381   4.436   0.622  0.0334 -0.2565  0.2182
 3416SOL    HW110247   3.320   4.445   0.549 -0.0614  1.6018  0.4871
 3416SOL    HW210248   3.407   4.525   0.643 -0.8658 -0.5941  3.2420
 3417SOL     OW10249   3.930   1.751   5.733  0.2746  0.0478 -0.2766
 3417SOL    HW110250   3.957   1.816   5.797  1.9159  0.9039 -1.7393
 3417SOL    HW210251   4.010   1.702   5.712 -0.4886 -1.0474 -0.7371
 3418SOL     OW10252   0.868   4.320   4.958  0.3081  0.5497 -0.8819
 3418SOL    HW110253   0.907   4.264   5.025 -1.8684  1.9206  1.7206
 3418SOL    HW210254   0.881   4.409   4.991 -0.5597  1.3109 -2.4797
 3419SOL     OW10255   3.979   3.626   4.742 -0.2569 -0.7479  0.1011
 3419SOL    HW110256   3.901   3.674   4.767  0.4792  0.3080  0.4330
 3419SOL    HW210257   3.947   3.541   4.712 -1.7555  0.4998 -2.0923
 3420SOL     OW10258   2.760   5.490   3.254  0.1804  0.4445 -0.1673
 3420SOL    HW110259   2.671   5.476   3.221 -0.2957  2.1767  0.2729
 3420SOL    HW210260   2.749   5.497   3.349  0.7722  0.7382 -0.1161
 3421SOL     OW10261   4.450   4.348   4.751  0.4875  0.1674  0.0983
 3421SOL    HW110262   4.494   4.288   4.811 -0.5841  0.6986  1.4807
 3421SOL    HW210263   4.498   4.430   4.759  0.5450  0.1484 -0.0402
 3422SOL     OW10264   2.778   3.722   5.668  0.3395  0.0196 -0.0334
 3422SOL    HW110265   2.773   3.771   5.750 -1.2497 -0.1248 -0.0066
 3422SOL    HW210266   2.802   3.633   5.693 -1.6279 -0.4180  0.4995
 3423SOL     OW10267   0.941   2.637   5.336  0.2195  0.1265 -0.0306
 3423SOL    HW110268   1.035   2.618   5.333  0.2110  0.0711  0.0446
 3423SOL    HW210269   0.902   2.573   5.276  0.1968 -0.0586  0.1794
 3424SOL     OW10270   1.664   1.316   4.916 -0.3870 -0.2731  0.4958
 3424SOL    HW110271   1.672   1.394   4.861  3.2952  0.1328  1.3134
 3424SOL    HW210272   1.700   1.245   4.863  0.6809 -0.4076  1.3551
 3425SOL     OW10273   0.086   4.145   1.559  0.1830  0.1944  0.2693
 3425SOL    HW110274   0.176   4.162   1.587 -0.0926  0.2586  1.1178
 3425SOL    HW210275   0.031   4.185   1.626 -0.4825 -0.0705 -0.1058
 3426SOL     OW10276   5.230   1.194   4.538  0.2510 -0.2454 -0.2231
 3426SOL    HW110277   5.220   1.124   4.474  0.4111 -0.4127 -0.0649
 3426SOL    HW210278   5.315   1.178   4.579 -0.0117 -0.3495  0.2862
 3427SOL     OW10279   3.598   1.622   3.673 -0.1513  0.0977  0.6022
 3427SOL    HW110280   3.666   1.580   3.620  2.1305  4.0608 -0.0223
 3427SOL    HW210281   3.619   1.596   3.763  0.4432 -0.9313  0.1888
 3428SOL     OW10282   4.062   3.932   2.229  0.3467  0.3239  0.1567
 3428SOL    HW110283   4.020   3.851   2.255 -3.3939  1.9756  0.0038
 3428SOL    HW210284   4.137   3.942   2.287 -0.7478 -1.8556  2.0561
 3429SOL     OW10285   4.230   2.414   4.367 -0.6783  0.5323  0.2304
 3429SOL    HW110286   4.185   2.404   4.450 -1.4128  1.0146 -0.1038
 3429SOL    HW210287   4.286   2.337   4.361 -1.7580 -0.2905  0.4638
 3430SOL     OW10288   0.817   0.654   4.449 -0.6325 -0.5478 -0.1767
 3430SOL    HW110289   0.779   0.685   4.531 -2.5453 -1.4670 -0.6637
 3430SOL    HW210290   0.779   0.567   4.436  0.4394 -0.8601 -1.5314
 3431SOL     OW10291   5.441   0.289   3.548  0.4337  0.7007 -0.1362
 3431SOL    HW110292   5.370   0.227   3.568  1.0445 -0.1203 -0.4785
 3431SOL    HW210293   5.456   0.335   3.631  1.3979 -1.0792  0.7354
 3432SOL     OW10294   0.988   1.567   2.177  0.0363 -0.6820 -0.0383
 3432SOL    HW110295   0.991   1.661   2.198 -0.8941 -0.6941  0.1919
 3432SOL    HW210296   1.072   1.533   2.207  0.0945 -0.0459  0.5428
 3433SOL     OW10297   0.231   4.008   2.204 -0.3875 -0.2305 -0.2723
 3433SOL    HW110298   0.175   3.975   2.134 -2.4257  0.1799  1.0962
 3433SOL    HW210299   0.188   4.087   2.235  0.5272 -0.3218  1.3661
 3434SOL     OW10300   2.584   5.547   3.905  0.0569  0.1830  0.1777
 3434SOL    HW110301   2.617   5.518   3.990 -0.4830 -0.5918  0.1309
 3434SOL    HW210302   2.513   5.608   3.927  0.6710  0.8769  0.2749
 3435SOL     OW10303   5.423   1.580   5.775 -0.2571  0.0386  0.4970
 3435SOL    HW110304   5.403   1.508   5.714  0.5702  0.4384 -0.2737
 3435SOL    HW210305   5.375   1.558   5.854 -0.3529 -1.1576  0.1317
 3436SOL     OW10306   4.222   2.141   3.737  0.4076  0.5773 -0.0128
 3436SOL    HW110307   4.168   2.103   3.668  1.0565  1.0972 -0.8260
 3436SOL    HW210308   4.312   2.122   3.710  0.6745 -1.1298  1.7991
 3437SOL     OW10309   4.544   2.093   3.659 -0.5782 -0.2328 -0.3556
 3437SOL    HW110310   4.542   2.189   3.656 -0.3700 -0.2095  0.0605
 3437SOL    HW210311   4.614   2.068   3.599 -2.2215 -0.2567 -2.3674
 3438SOL     OW10312   3.174   1.132   5.162  0.0966  0.2035 -0.1876
 3438SOL    HW110313   3.214   1.208   5.121  1.6593 -1.2790 -1.5963
 3438SOL    HW210314   3.247   1.082   5.198 -0.0777 -3.0147 -3.5699
 3439SOL     OW10315   2.215   1.879   3.765 -0.0051  0.2077  0.2012
 3439SOL    HW110316   2.158   1.929   3.706 -1.1357  0.7786  1.7103
 3439SOL    HW210317   2.293   1.934   3.774 -0.0360  0.3502 -0.3692
 3440SOL     OW10318   1.609   5.475   0.094 -0.3974 -0.0295  0.3203
 3440SOL    HW110319   1.701   5.464   0.072  0.1370 -0.1632  2.4730
 3440SOL    HW210320   1.582   5.390   0.128 -1.3007  0.0562 -0.1391
 3441SOL     OW10321   2.826   2.565   4.364 -0.0938 -0.3746 -0.6514
 3441SOL    HW110322   2.856   2.653   4.340  1.6446 -0.5240  0.7585
 3441SOL    HW210323   2.883   2.506   4.314 -0.2179 -0.6905 -0.4221
 3442SOL     OW10324   3.187   0.496   1.797  0.2399  0.4844 -0.1343
 3442SOL    HW110325   3.246   0.571   1.794 -0.1103  0.7572 -0.3354
 3442SOL    HW210326   3.104   0.533   1.828  0.0370  0.1999 -0.3343
 3443SOL     OW10327   1.832   5.246   2.696 -0.1595 -0.3723 -0.1284
 3443SOL    HW110328   1.912   5.195   2.685  0.4427  0.5674 -0.2603
 3443SOL    HW210329   1.761   5.183   2.685  0.5680 -1.4613  1.1861
 3444SOL     OW10330   5.389   2.190   0.104 -0.4124  0.0156 -0.3666
 3444SOL    HW110331   5.436   2.248   0.045  0.0086 -1.0691 -1.1466
 3444SOL    HW210332   5.303   2.177   0.062 -0.1959 -0.5763 -0.6457
 3445SOL     OW10333   0.458   2.089   1.301  0.0743 -0.1131 -0.1248
 3445SOL    HW110334   0.436   2.016   1.242  0.8619  0.8866 -1.7093
 3445SOL    HW210335   0.436   2.168   1.251  2.0523  0.8016  0.3585
 3446SOL     OW10336   0.306   3.034   5.864 -0.2595 -0.2165  0.0796
 3446SOL    HW110337   0.301   2.975   5.940  0.5275  0.1419  0.4258
 3446SOL    HW210338   0.359   3.107   5.895  0.3604 -0.2256 -0.9266
 3447SOL     OW10339   1.984   1.538   4.908 -0.9993 -0.0140  0.4551
 3447SOL    HW110340   1.969   1.513   4.817  1.0833  0.2159  0.0142
 3447SOL    HW210341   1.896   1.550   4.944 -1.8846 -1.0070 -1.2515
 3448SOL     OW10342   3.186   0.326   2.238  1.0425 -0.2096  0.4554
 3448SOL    HW110343   3.110   0.272   2.215 -0.7399  1.8716  1.1031
 3448SOL    HW210344   3.151   0.391   2.300  2.6311  2.7344 -1.5044
 3449SOL     OW10345   3.417   1.014   4.375 -0.1385 -0.3215 -0.3156
 3449SOL    HW110346   3.438   1.036   4.284 -0.1627  0.6919 -0.0859
 3449SOL    HW210347   3.503   0.998   4.416 -0.1743 -1.9178 -0.7632
 3450SOL     OW10348   4.789   2.871   5.870  0.2800  0.2729 -0.2243
 3450SOL    HW110349   4.714   2.930   5.873 -0.0696 -0.2010  0.5013
 3450SOL    HW210350   4.861   2.923   5.907  0.0673  0.3869  0.0350
 3451SOL     OW10351   2.214   4.180   0.718  0.1144  0.2797  0.0271
 3451SOL    HW110352   2.304   4.167   0.747  0.2641  0.0803 -0.5232
 3451SOL    HW210353   2.178   4.092   0.709  0.2128  0.3203 -0.8277
 3452SOL     OW10354   2.506   0.366   5.296 -0.5309  0.2208 -0.3038
 3452SOL    HW110355   2.527   0.376   5.389 -2.2822 -1.6105  0.3710
 3452SOL    HW210356   2.517   0.272   5.279 -2.3756  0.1493 -1.3449
 3453SOL     OW10357   0.160   4.547   3.373 -0.1736 -0.2231  0.1327
 3453SOL    HW110358   0.216   4.489   3.320  0.6807 -0.0511  0.8147
 3453SOL    HW210359   0.209   4.629   3.377 -2.4411  1.4478 -2.8143
 3454SOL     OW10360   3.145   2.093   0.932  0.2658 -0.2477  0.2491
 3454SOL    HW110361   3.232   2.112   0.896  0.7612 -2.4060  0.1749
 3454SOL    HW210362   3.130   2.163   0.996  0.6376  1.9693 -1.9552
 3455SOL     OW10363   1.084   0.707   4.582 -0.3489  0.6757  0.0163
 3455SOL    HW110364   1.102   0.789   4.627 -0.4243  1.3183 -1.0895
 3455SOL    HW210365   0.993   0.714   4.554  0.2675  1.1806 -1.9874
 3456SOL     OW10366   2.864   0.098   2.406  0.1304 -0.3782  0.2566
 3456SOL    HW110367   2.818   0.014   2.412 -1.7737  0.6603  0.7102
 3456SOL    HW210368   2.822   0.143   2.333  2.0713 -0.3233 -0.8858
 3457SOL     OW10369   3.647   1.397   5.722 -0.6576 -0.1399 -0.2635
 3457SOL    HW110370   3.740   1.384   5.738  0.1191 -0.7498 -4.1522
 3457SOL    HW210371   3.634   1.491   5.728  0.4436  0.0363 -0.5044
 3458SOL     OW10372   1.562   3.180   2.277 -0.1629 -0.1667  0.0713
 3458SOL    HW110373   1.535   3.268   2.305 -1.5523 -0.5834  0.0941
 3458SOL    HW210374   1.483   3.141   2.240 -0.5123 -2.5759  2.9708
 3459SOL     OW10375   0.876   1.390   3.332 -0.0779 -0.3267  0.2616
 3459SOL    HW110376   0.797   1.349   3.366 -0.3702 -1.9840 -2.2180
 3459SOL    HW210377   0.854   1.417   3.243  2.3921 -1.8000 -0.9208
 3460SOL     OW10378   2.260   3.594   0.118 -0.2956 -0.2661  0.1462
 3460SOL    HW110379   2.266   3.576   0.025  1.4429 -0.3874  0.2360
 3460SOL    HW210380   2.176   3.557   0.145  0.3136 -2.5955 -0.8968
 3461SOL     OW10381   3.289   5.394   1.668  0.0306 -0.1078 -0.5512
 3461SOL    HW110382   3.224   5.441   1.616 -0.6128 -0.2613  0.0976
 3461SOL    HW210383   3.257   5.304   1.672 -0.0058 -0.0724  0.2119
 3462SOL     OW10384   3.898   3.727   4.322 -0.0615  0.0474  0.0674
 3462SOL    HW110385   3.950   3.647   4.326 -1.8591 -1.1733  0.1153
 3462SOL    HW210386   3.960   3.794   4.291  1.3440 -1.4609 -0.5463
 3463SOL     OW10387   1.883   3.024   4.144  0.0695  0.5330  0.2981
 3463SOL    HW110388   1.955   2.961   4.141 -0.2055  0.0618  2.3300
 3463SOL    HW210389   1.918   3.098   4.193  0.7510  2.5646 -2.9610
 3464SOL     OW10390   3.495   3.037   3.809  0.2507  0.5407 -0.1326
 3464SOL    HW110391   3.480   3.111   3.868  0.9038  0.1361  0.5492
 3464SOL    HW210392   3.583   3.007   3.829 -0.7269 -1.7857  1.1639
 3465SOL     OW10393   2.994   5.552   4.202  0.9159  0.1567 -0.0241
 3465SOL    HW110394   3.007   5.483   4.137  1.6404 -0.4269  0.7260
 3465SOL    HW210395   3.021   5.513   4.285  1.3647  1.3390  0.4144
 3466SOL     OW10396   2.583   3.885   0.481  0.3748  0.5420  0.1613
 3466SOL    HW110397   2.519   3.856   0.546  1.1347 -0.5051  0.4739
 3466SOL    HW210398   2.531   3.910   0.405 -0.3718 -1.4325 -0.0349
 3467SOL     OW10399   2.704   2.181   4.147  0.0482 -0.1226  0.5533
 3467SOL    HW110400   2.653   2.135   4.081 -0.6042 -0.8929  1.5766
 3467SOL    HW210401   2.795   2.162   4.124 -0.1773 -0.5720  0.0076
 3468SOL     OW10402   2.610   0.618   0.411 -0.6510 -0.4468  0.7477
 3468SOL    HW110403   2.581   0.567   0.486 -0.8891 -1.6504 -0.1379
 3468SOL    HW210404   2.682   0.671   0.444 -0.7852 -0.9215  1.8318
 3469SOL     OW10405   2.889   4.084   2.922  0.3480  0.3483 -0.0499
 3469SOL    HW110406   2.907   4.060   2.831 -3.0178  0.3780 -0.8564
 3469SOL    HW210407   2.897   4.180   2.924 -0.4391  0.4271 -0.5514
 3470SOL     OW10408   2.587   0.787   0.862  0.0653 -0.0443 -0.1234
 3470SOL    HW110409   2.632   0.871   0.863 -1.2579  0.6945 -0.5592
 3470SOL    HW210410   2.581   0.762   0.954 -1.8349  1.6403  0.2653
 3471SOL     OW10411   0.063   5.643   3.962  0.3682 -0.3054  0.9031
 3471SOL    HW110412  -0.019   5.597   3.947  0.2479 -0.0148  0.6613
 3471SOL    HW210413   0.042   5.736   3.951  0.5588 -0.1729  1.6373
 3472SOL     OW10414   4.304   4.015   2.946 -0.1291  0.2029 -0.6070
 3472SOL    HW110415   4.350   3.936   2.919  1.2219  0.8116 -0.2083
 3472SOL    HW210416   4.254   3.989   3.023 -1.6072 -0.8102 -1.8588
 3473SOL     OW10417   1.088   5.612   4.870 -0.1732 -0.6529  0.0435
 3473SOL    HW110418   1.034   5.540   4.903  0.6945 -2.0479 -1.4245
 3473SOL    HW210419   1.177   5.591   4.899 -0.1136  0.7113  0.9613
 3474SOL     OW10420   1.642   4.524   2.384  0.0816 -0.2376 -0.1035
 3474SOL    HW110421   1.662   4.438   2.348 -0.2840 -1.1316  1.6984
 3474SOL    HW210422   1.723   4.553   2.425  0.2238  0.3150 -0.7654
 3475SOL     OW10423   4.025   3.630   5.371  0.1240 -0.2686  0.7952
 3475SOL    HW110424   4.032   3.619   5.466  0.4849 -0.2548  0.7746
 3475SOL    HW210425   3.934   3.611   5.351 -0.7073  2.4270  1.4972
 3476SOL     OW10426   3.617   2.055   3.973  0.1005  0.3485  0.0635
 3476SOL    HW110427   3.566   2.119   3.924 -0.7735 -1.2141 -1.1766
 3476SOL    HW210428   3.688   2.030   3.915  1.6537  1.6239  1.3237
 3477SOL     OW10429   0.512   3.149   2.009  0.1905  0.1240 -0.2334
 3477SOL    HW110430   0.570   3.223   2.025 -0.9226  0.3796  4.0498
 3477SOL    HW210431   0.425   3.188   2.000 -0.0154 -0.5230 -1.2011
 3478SOL     OW10432   2.916   2.962   2.116  0.2160 -0.3421 -0.2421
 3478SOL    HW110433   2.998   2.921   2.143  0.0796 -0.8300 -0.5557
 3478SOL    HW210434   2.849   2.922   2.171  0.1443 -0.1632 -0.1957
 3479SOL     OW10435   2.462   1.763   4.011  0.0787 -0.1785  0.4739
 3479SOL    HW110436   2.492   1.686   4.061  0.4310  0.2957  1.0020
 3479SOL    HW210437   2.535   1.782   3.952 -0.5771 -1.1075 -0.6771
 3480SOL     OW10438   4.083   5.897   1.549  0.5934 -0.5355  0.8239
 3480SOL    HW110439   4.082   5.991   1.563  0.1809 -0.7518  2.5085
 3480SOL    HW210440   3.993   5.869   1.563  0.3239 -0.9841 -1.5033
 3481SOL     OW10441   3.907   2.050   5.627  0.0388  0.5001  0.5598
 3481SOL    HW110442   3.908   2.031   5.721 -0.5278 -1.2056  0.2480
 3481SOL    HW210443   3.815   2.060   5.605 -0.1590 -2.4938 -0.3878
 3482SOL     OW10444   1.200   0.023   5.227 -0.1681  0.2739 -0.5659
 3482SOL    HW110445   1.143  -0.048   5.196 -1.4229  1.2237 -0.5476
 3482SOL    HW210446   1.144   0.074   5.285  1.4928 -0.2292  1.5963
 3483SOL     OW10447   4.110   1.935   4.268 -0.3303 -0.1672 -0.0011
 3483SOL    HW110448   4.154   2.011   4.230 -0.3611 -0.2198 -0.1430
 3483SOL    HW210449   4.155   1.920   4.351 -0.3587  0.0396  0.0538
 3484SOL     OW10450   3.741   2.382   1.971 -0.4131 -0.4057 -0.2085
 3484SOL    HW110451   3.779   2.465   1.942 -0.1951 -0.9403 -1.5300
 3484SOL    HW210452   3.792   2.357   2.047  0.5116 -0.0701 -0.7096
 3485SOL     OW10453   2.986   0.803   2.497 -0.0192  0.2629 -0.1997
 3485SOL    HW110454   3.041   0.862   2.445 -0.5383  1.0073  0.0841
 3485SOL    HW210455   3.045   0.732   2.523  1.0111  1.4323  0.7513
 3486SOL     OW10456   1.968   5.600   0.821  0.5553 -0.1987 -0.7347
 3486SOL    HW110457   1.961   5.527   0.759 -0.0967  0.1169 -1.0382
 3486SOL    HW210458   1.947   5.678   0.769  1.4543  0.2393 -0.4654
 3487SOL     OW10459   3.767   3.926   3.604 -0.0209 -0.0695 -0.4668
 3487SOL    HW110460   3.740   4.006   3.649  0.1605  0.0502 -0.5694
 3487SOL    HW210461   3.764   3.858   3.671  1.4318  0.3337  0.0365
 3488SOL     OW10462   5.845   3.865   2.135  0.8980 -0.1558 -0.1105
 3488SOL    HW110463   5.776   3.931   2.136  1.4374  0.4223  0.5627
 3488SOL    HW210464   5.888   3.875   2.220  1.7524 -0.5659 -0.4835
 3489SOL     OW10465   0.372   2.495   2.543  0.4220 -0.1691 -0.5274
 3489SOL    HW110466   0.318   2.501   2.464 -0.4277 -1.9673 -0.1350
 3489SOL    HW210467   0.416   2.410   2.535 -0.2603 -0.7294  1.2555
 3490SOL     OW10468   3.205   3.532   0.169  0.1330  0.1424 -0.4295
 3490SOL    HW110469   3.278   3.591   0.148  0.4204 -0.1112 -0.1556
 3490SOL    HW210470   3.128   3.589   0.171  0.6013  0.7866  1.1953
 3491SOL     OW10471   0.518   1.168   2.685 -0.4892 -0.2568  0.3701
 3491SOL    HW110472   0.549   1.085   2.648  0.0974 -0.4195  1.1993
 3491SOL    HW210473   0.489   1.145   2.773 -0.6019  0.3655  0.4965
 3492SOL     OW10474   3.022   1.141   0.269  0.3428 -0.1777 -0.4970
 3492SOL    HW110475   3.104   1.116   0.225 -0.4176 -1.9305 -1.0075
 3492SOL    HW210476   3.000   1.226   0.231  1.3955 -0.1480 -1.1043
 3493SOL     OW10477   1.750   2.818   4.541  0.1686  0.1641  0.1344
 3493SOL    HW110478   1.673   2.761   4.547  0.1150  0.1569 -0.6281
 3493SOL    HW210479   1.754   2.845   4.450  0.8674  0.4526  0.2407
 3494SOL     OW10480   5.486   2.124   0.906  0.5441  0.0827 -0.1846
 3494SOL    HW110481   5.499   2.035   0.873 -0.3318  0.3125 -1.1762
 3494SOL    HW210482   5.537   2.179   0.848  2.5611  0.1182  1.4800
 3495SOL     OW10483   2.295   0.844   4.443 -0.2321 -0.0107  0.3254
 3495SOL    HW110484   2.292   0.938   4.459  1.1585  0.0589  0.3537
 3495SOL    HW210485   2.217   0.810   4.487 -1.4923  1.2587 -0.8344
 3496SOL     OW10486   0.314   2.088   3.030  0.0619 -0.2629 -0.4435
 3496SOL    HW110487   0.342   2.009   3.076  0.9930  0.3733  0.1059
 3496SOL    HW210488   0.264   2.055   2.955  0.3233 -1.3665 -0.1538
 3497SOL     OW10489   3.099   1.409   3.216 -0.4132 -0.5545  0.4148
 3497SOL    HW110490   3.053   1.369   3.290 -0.1750  0.0697  0.9058
 3497SOL    HW210491   3.186   1.369   3.218 -0.5619 -0.8888  0.1839
 3498SOL     OW10492   2.082   0.316   0.270  0.3228  0.1580 -0.2475
 3498SOL    HW110493   2.026   0.390   0.245 -0.0302 -0.5927 -1.7932
 3498SOL    HW210494   2.021   0.246   0.294  0.6556  0.5004  1.7861
 3499SOL     OW10495   2.272   2.635   4.345 -0.6653  0.3327  0.2786
 3499SOL    HW110496   2.272   2.697   4.419 -0.5548  1.3578 -0.5583
 3499SOL    HW210497   2.355   2.589   4.353  0.6770  2.4209 -0.7831
 3500SOL     OW10498   2.634   3.126   1.401 -0.7201 -0.3352  0.1088
 3500SOL    HW110499   2.705   3.100   1.342 -0.1237 -1.8751  1.4270
 3500SOL    HW210500   2.679   3.155   1.481 -1.5066  1.7349 -0.1519
 3501SOL     OW10501   3.876   2.043   3.814 -0.2696 -0.6140  0.4332
 3501SOL    HW110502   3.886   2.031   3.909  0.7506  2.0642  0.7600
 3501SOL    HW210503   3.932   1.977   3.775  0.3085 -0.9252  1.7305
 3502SOL     OW10504   1.302   3.368   3.524  0.1417  0.1220  0.5021
 3502SOL    HW110505   1.341   3.324   3.449 -0.0264  0.2204  0.3561
 3502SOL    HW210506   1.335   3.320   3.600  0.2588 -0.0193  0.3618
 3503SOL     OW10507   2.979   0.704   3.528  0.6393 -0.2378 -0.0490
 3503SOL    HW110508   2.904   0.726   3.472  0.0969 -1.0543  0.3339
 3503SOL    HW210509   2.957   0.743   3.612  1.0690  0.2845 -0.1772
 3504SOL     OW10510   4.178   4.535   4.869  0.2379  0.0625  0.1683
 3504SOL    HW110511   4.252   4.482   4.842  0.7558 -0.0555  1.7227
 3504SOL    HW210512   4.187   4.543   4.964 -0.2333  2.3111  0.0957
 3505SOL     OW10513   3.811   3.540   1.083 -0.0937 -0.4812  0.1147
 3505SOL    HW110514   3.849   3.590   1.155  1.1271  0.9616 -1.4278
 3505SOL    HW210515   3.864   3.461   1.078 -0.1296 -0.5456  0.7422
 3506SOL     OW10516   1.696   4.721   3.978 -0.0830 -0.4887 -0.1897
 3506SOL    HW110517   1.741   4.638   3.963 -0.2656 -0.5051 -0.6634
 3506SOL    HW210518   1.603   4.701   3.963 -0.0469 -0.0200 -1.0676
 3507SOL     OW10519   3.193   3.200   3.862 -0.5534  0.2130  0.4386
 3507SOL    HW110520   3.276   3.205   3.909  0.1887 -0.6549 -0.7184
 3507SOL    HW210521   3.216   3.162   3.777 -2.4480 -2.1251  0.8667
 3508SOL     OW10522   2.344   4.048   3.308 -0.0952  0.0286 -0.0240
 3508SOL    HW110523   2.369   3.988   3.378 -0.0388  1.0417  0.8478
 3508SOL    HW210524   2.298   3.994   3.245  0.4179 -1.0260  0.4857
 3509SOL     OW10525   2.370   3.702   5.337  0.6234  0.2101 -0.0107
 3509SOL    HW110526   2.280   3.672   5.350  0.3443  1.2291  0.5457
 3509SOL    HW210527   2.366   3.754   5.256  0.5616  0.8107  0.3747
 3510SOL     OW10528   1.812   0.894   4.380  0.0967 -0.0957  0.4433
 3510SOL    HW110529   1.729   0.896   4.332  0.4228 -0.2709 -0.1313
 3510SOL    HW210530   1.834   0.987   4.392 -0.2046 -0.0473  0.6419
 3511SOL     OW10531   2.696   2.289   4.452 -0.1330 -0.3070  0.1579
 3511SOL    HW110532   2.747   2.364   4.421  1.7672 -1.3025  0.7066
 3511SOL    HW210533   2.680   2.236   4.373  0.8023 -0.6019  0.1522
 3512SOL     OW10534   3.583   5.658   0.524  0.1898  0.0178  0.3269
 3512SOL    HW110535   3.570   5.563   0.521  0.3300 -0.0802  2.0847
 3512SOL    HW210536   3.494   5.694   0.529  0.1078  0.0278 -0.9809
 3513SOL     OW10537   2.814   0.888   4.088  0.5421  0.3774  0.4219
 3513SOL    HW110538   2.795   0.818   4.025  1.5513 -1.1989  1.7687
 3513SOL    HW210539   2.769   0.860   4.168  1.8390  0.6866  1.2895
 3514SOL     OW10540   3.131   4.851   3.499 -0.0704 -0.5958  0.0155
 3514SOL    HW110541   3.038   4.828   3.506 -0.1696  0.3035  2.8728
 3514SOL    HW210542   3.132   4.936   3.455 -0.6235 -0.5313  0.1250
 3515SOL     OW10543   5.413   2.733   4.124 -0.3162  0.2583  0.6654
 3515SOL    HW110544   5.472   2.664   4.093 -0.3078  0.1092  1.0125
 3515SOL    HW210545   5.366   2.693   4.197 -1.4470  0.0948 -0.1165
 3516SOL     OW10546   1.869   5.285   3.367  0.4515  0.1203  0.1436
 3516SOL    HW110547   1.856   5.379   3.366 -1.2896 -0.0806 -0.3632
 3516SOL    HW210548   1.788   5.250   3.405  1.4236 -1.1270  1.1298
 3517SOL     OW10549   2.770   3.563   4.697  0.2829 -0.0980  0.0605
 3517SOL    HW110550   2.808   3.599   4.616  0.5214 -1.0948 -0.2865
 3517SOL    HW210551   2.839   3.507   4.733 -0.5084 -1.1886 -0.0806
 3518SOL     OW10552   3.490   3.849   4.364 -0.0196 -0.5657  0.4758
 3518SOL    HW110553   3.416   3.870   4.421  1.1674  2.2587  1.1640
 3518SOL    HW210554   3.450   3.834   4.278 -1.4480  0.0034  1.0075
 3519SOL     OW10555   3.208   2.934   5.364  0.4964 -0.0584 -0.3937
 3519SOL    HW110556   3.217   2.915   5.458 -0.3563  3.7953  0.6597
 3519SOL    HW210557   3.176   2.852   5.326 -0.1455 -1.4933  2.8679
 3520SOL     OW10558   1.786   5.667   4.954  0.2298  0.4324  1.0416
 3520SOL    HW110559   1.732   5.711   4.888 -0.9307 -1.2522  0.8115
 3520SOL    HW210560   1.725   5.609   5.000  1.8563 -1.8169  0.5334
 3521SOL     OW10561   0.768   3.488   4.452 -0.5096 -0.1627  0.0730
 3521SOL    HW110562   0.743   3.438   4.374  3.5533  0.8539 -2.1567
 3521SOL    HW210563   0.768   3.579   4.422  0.3902  0.3196  1.4827
 3522SOL     OW10564   0.135   1.085   1.110 -0.2175  0.2171  0.2474
 3522SOL    HW110565   0.219   1.048   1.085 -0.3443  0.0798  0.0242
 3522SOL    HW210566   0.080   1.076   1.032 -0.2154  0.9828  0.1465
 3523SOL     OW10567   3.002   1.038   4.933  0.1647  0.1397  0.1224
 3523SOL    HW110568   3.015   1.130   4.910  1.6819 -0.2258 -0.5602
 3523SOL    HW210569   3.058   1.024   5.008 -1.9757  0.3630  1.8786
 3524SOL     OW10570   4.336   1.726   1.816  0.1253  0.0042 -0.2117
 3524SOL    HW110571   4.275   1.757   1.749  0.1366 -0.1593 -0.2980
 3524SOL    HW210572   4.369   1.806   1.856  0.6092  0.1312 -0.8393
 3525SOL     OW10573   0.011   2.231   5.260  0.3186 -0.0144  0.1649
 3525SOL    HW110574  -0.013   2.143   5.289 -3.4724  1.4946  2.4004
 3525SOL    HW210575   0.104   2.224   5.238  0.3878 -4.3654  0.8251
 3526SOL     OW10576   2.834   3.101   5.901 -0.4711 -0.2224  0.3362
 3526SOL    HW110577   2.791   3.182   5.929 -0.4480  0.6437 -1.9046
 3526SOL    HW210578   2.837   3.047   5.979  1.2337  2.6677  2.5009
 3527SOL     OW10579   4.878   1.085   5.207  0.0975 -0.3901  0.4841
 3527SOL    HW110580   4.821   1.123   5.274  0.2312  1.0682 -0.1771
 3527SOL    HW210581   4.910   1.004   5.245 -1.0327 -0.3544  1.5643
 3528SOL     OW10582   5.661   3.794   3.948 -0.0501 -0.0680 -0.1756
 3528SOL    HW110583   5.747   3.753   3.955  0.0900 -0.0036 -1.3265
 3528SOL    HW210584   5.600   3.727   3.979  0.3962 -0.1670  0.5040
 3529SOL     OW10585   2.176   5.840   2.557  0.0048  0.0930 -0.0529
 3529SOL    HW110586   2.201   5.753   2.526 -1.1114  0.0137 -0.7464
 3529SOL    HW210587   2.131   5.824   2.640  0.6267  0.0941  0.2912
 3530SOL     OW10588   2.318   3.071   4.403 -0.5574 -0.2778  0.1945
 3530SOL    HW110589   2.371   3.131   4.350 -0.9326 -0.9703 -0.9890
 3530SOL    HW210590   2.370   2.991   4.409 -1.3088 -0.8495 -0.7022
 3531SOL     OW10591   3.811   3.709   2.090  0.0040 -0.1835  0.3105
 3531SOL    HW110592   3.737   3.745   2.139 -0.2464 -1.4212  0.8763
 3531SOL    HW210593   3.842   3.782   2.037 -1.5322  0.4009  0.1688
 3532SOL     OW10594   5.056   3.180   1.296 -0.1683 -0.0542 -0.5859
 3532SOL    HW110595   5.054   3.086   1.279 -0.7642 -0.1762  0.1479
 3532SOL    HW210596   5.148   3.198   1.316 -0.2770 -0.7344  0.6220
 3533SOL     OW10597   0.014   4.218   4.745  0.0986  0.4498  0.2421
 3533SOL    HW110598  -0.012   4.171   4.824  0.4898 -0.5539 -0.2119
 3533SOL    HW210599   0.100   4.255   4.766  0.0021  0.5655  0.4346
 3534SOL     OW10600   4.444   4.713   0.556 -0.4166 -0.0181 -0.2913
 3534SOL    HW110601   4.446   4.700   0.651  0.7562  0.8689 -0.1807
 3534SOL    HW210602   4.509   4.652   0.522 -2.3883 -1.9849 -0.7837
 3535SOL     OW10603   3.253   1.655   3.571  0.1040  0.3797 -0.2983
 3535SOL    HW110604   3.198   1.704   3.632 -0.4249  1.7315 -1.7802
 3535SOL    HW210605   3.298   1.591   3.625 -0.1263  1.6938  1.5488
 3536SOL     OW10606   3.535   2.940   5.772  0.1785 -0.0739 -0.0275
 3536SOL    HW110607   3.547   2.866   5.713 -3.1121 -0.0680 -0.9110
 3536SOL    HW210608   3.592   3.008   5.737  0.9125 -1.1887 -1.0675
 3537SOL     OW10609   2.180   2.817   4.772 -0.1347  0.4777 -0.2696
 3537SOL    HW110610   2.241   2.886   4.799 -0.7638  0.9249  0.0476
 3537SOL    HW210611   2.131   2.856   4.700 -0.7190  0.4939  0.1252
 3538SOL     OW10612   1.571   4.284   2.263  0.1942 -0.5396 -0.2480
 3538SOL    HW110613   1.490   4.247   2.298  0.4728  0.2139  1.2496
 3538SOL    HW210614   1.555   4.288   2.168 -0.7939 -2.0977 -0.1942
 3539SOL     OW10615   1.686   1.689   5.636  0.0247 -0.4115  0.1553
 3539SOL    HW110616   1.739   1.764   5.666  0.2724 -1.5517  2.8155
 3539SOL    HW210617   1.751   1.623   5.610 -0.1953  0.0940 -1.8678
 3540SOL     OW10618   3.942   2.234   4.415 -0.1432 -0.3740 -0.1479
 3540SOL    HW110619   3.896   2.301   4.364 -0.4389  0.0004  0.5935
 3540SOL    HW210620   3.998   2.190   4.352 -0.9616 -0.3313 -0.9280
 3541SOL     OW10621   5.306   2.958   5.253 -0.3089  0.1652 -0.8310
 3541SOL    HW110622   5.355   2.951   5.336 -0.7814  0.8761 -0.4826
 3541SOL    HW210623   5.214   2.950   5.279 -0.6614  3.1171 -0.8938
 3542SOL     OW10624   3.479   0.191   0.131  0.2533 -0.1222 -0.1461
 3542SOL    HW110625   3.501   0.102   0.159  0.0805  0.2649  1.3049
 3542SOL    HW210626   3.564   0.233   0.118  0.3806 -1.0753 -2.9630
 3543SOL     OW10627   3.538   3.542   4.762  0.4440 -0.5730  0.0464
 3543SOL    HW110628   3.503   3.472   4.818  0.2951 -0.0532  0.6239
 3543SOL    HW210629   3.460   3.589   4.733  0.5807 -0.2584  0.1892
 3544SOL     OW10630   0.923   4.605   4.668 -0.9412 -0.0476  0.0570
 3544SOL    HW110631   0.920   4.670   4.597  1.7366  0.2968  0.1485
 3544SOL    HW210632   0.872   4.532   4.634 -0.2820  0.3608 -2.0184
 3545SOL     OW10633   3.711   2.200   3.680  0.0002 -0.4160 -0.4162
 3545SOL    HW110634   3.777   2.205   3.610  0.2204 -1.7088 -0.3129
 3545SOL    HW210635   3.740   2.128   3.735 -0.7558 -0.0924  0.4274
 3546SOL     OW10636   1.288   3.243   0.348  0.1963  0.0211  0.6234
 3546SOL    HW110637   1.315   3.161   0.390  3.5426  1.3377  1.3587
 3546SOL    HW210638   1.215   3.274   0.401  0.0197 -1.6225  1.3950
 3547SOL     OW10639   0.582   1.601   1.716  0.3809  0.0919 -0.0873
 3547SOL    HW110640   0.630   1.684   1.714  1.4654 -0.2870  3.2342
 3547SOL    HW210641   0.490   1.627   1.728  0.7440  0.8994  1.2974
 3548SOL     OW10642   2.733   3.452   5.536 -0.3921 -0.5386 -0.3300
 3548SOL    HW110643   2.700   3.519   5.475  0.2906  1.1147  1.0251
 3548SOL    HW210644   2.661   3.390   5.545 -3.7075  3.2577  3.0185
 3549SOL     OW10645   4.542   4.174   4.960  0.3966  0.4038 -0.2993
 3549SOL    HW110646   4.623   4.125   4.974  0.0160 -0.2827 -0.4541
 3549SOL    HW210647   4.474   4.107   4.958 -0.3522  1.0787  1.2111
 3550SOL     OW10648   4.313   2.140   4.056 -0.2029 -0.4084 -0.1100
 3550SOL    HW110649   4.387   2.197   4.036 -2.1908  2.5064  0.1870
 3550SOL    HW210650   4.334   2.058   4.012  2.0433  1.1076 -2.1874
 3551SOL     OW10651   0.816   2.319   5.905 -0.7943 -0.0249  0.3858
 3551SOL    HW110652   0.822   2.360   5.819  0.1910  0.7671  0.8076
 3551SOL    HW210653   0.729   2.344   5.938 -1.7022 -1.3982 -0.8727
 3552SOL     OW10654   2.950   3.296   5.318  0.0769 -0.1769 -0.4886
 3552SOL    HW110655   3.024   3.292   5.378 -0.1324 -1.1930 -0.2770
 3552SOL    HW210656   2.873   3.300   5.375 -0.1447 -1.5485 -0.6585
 3553SOL     OW10657   5.444   1.967   5.684 -0.1848  0.1323  0.1490
 3553SOL    HW110658   5.489   2.045   5.718 -0.3161  0.7793 -1.0875
 3553SOL    HW210659   5.487   1.894   5.727  2.2239  0.7008 -1.1196
 3554SOL     OW10660   4.960   1.338   1.367 -0.7864 -0.2501  0.6036
 3554SOL    HW110661   5.024   1.276   1.333  0.2137  0.4104  1.2068
 3554SOL    HW210662   4.975   1.339   1.462  1.0477  2.7579  0.4327
 3555SOL     OW10663   4.955   2.940   1.542 -0.2041 -0.5322 -0.0795
 3555SOL    HW110664   5.050   2.940   1.526 -0.1589 -1.5898  0.1103
 3555SOL    HW210665   4.947   2.911   1.633 -0.6288  1.6019  0.6101
 3556SOL     OW10666   3.342   3.450   1.386  0.4613  0.2443 -0.4914
 3556SOL    HW110667   3.344   3.541   1.358  1.4758  0.4790  0.2903
 3556SOL    HW210668   3.426   3.414   1.354  0.9732  0.1307  0.9190
 3557SOL     OW10669   2.478   0.864   2.491  0.5988 -0.0900  0.3109
 3557SOL    HW110670   2.430   0.793   2.447  1.8701 -0.2964 -0.7979
 3557SOL    HW210671   2.427   0.943   2.471  0.9197 -0.2365 -1.2639
 3558SOL     OW10672   1.813   3.803   4.974 -0.0357  0.0892  0.1674
 3558SOL    HW110673   1.863   3.752   5.038 -0.2736  0.7681  0.9077
 3558SOL    HW210674   1.824   3.894   5.001 -0.6489  0.3427 -0.3948
 3559SOL     OW10675   3.011   5.496   0.424  0.0000 -0.6320 -0.0813
 3559SOL    HW110676   3.007   5.445   0.343  0.5787  1.5849 -1.5780
 3559SOL    HW210677   3.103   5.520   0.433 -0.2887  0.3279  0.4613
 3560SOL     OW10678   1.787   5.333   3.701  0.5236 -0.3526  0.6227
 3560SOL    HW110679   1.853   5.399   3.718 -0.1512  0.2650  0.9129
 3560SOL    HW210680   1.738   5.326   3.783  0.0292 -0.5676  0.3183
 3561SOL     OW10681   4.290   3.211   1.854  0.0628 -0.0771  0.8363
 3561SOL    HW110682   4.295   3.126   1.809 -1.4189 -1.0245  2.3552
 3561SOL    HW210683   4.203   3.213   1.892 -0.4078  2.7176 -0.1709
 3562SOL     OW10684   2.049   5.099   5.502 -0.2673 -0.8085 -0.8823
 3562SOL    HW110685   2.056   5.003   5.501 -0.0050 -0.8003 -0.3203
 3562SOL    HW210686   2.090   5.127   5.420  3.0769 -0.9838  0.5714
 3563SOL     OW10687   1.931   3.758   0.881  0.0982 -0.0455 -0.0077
 3563SOL    HW110688   1.965   3.719   0.801 -0.7314  1.2150 -1.0223
 3563SOL    HW210689   1.849   3.799   0.854 -1.1249 -1.0971  1.8816
 3564SOL     OW10690   1.224   2.345   3.679  0.0733 -0.4104  0.0878
 3564SOL    HW110691   1.132   2.354   3.705 -0.4281 -0.3179 -1.5878
 3564SOL    HW210692   1.268   2.310   3.757 -1.2404  0.1906  1.1347
 3565SOL     OW10693   2.896   4.136   3.665  0.2690  0.3221 -0.1758
 3565SOL    HW110694   2.937   4.123   3.750  0.1889 -0.9072 -0.2956
 3565SOL    HW210695   2.867   4.048   3.639 -2.3350  1.0920 -0.1669
 3566SOL     OW10696   0.105   1.686   5.316 -0.0614  0.2882 -0.0734
 3566SOL    HW110697   0.168   1.624   5.353 -1.3523 -0.8630  0.2695
 3566SOL    HW210698   0.022   1.664   5.358 -1.2648 -0.0342 -2.4616
 3567SOL     OW10699   0.073   4.504   4.923 -0.0003  0.0241  0.6986
 3567SOL    HW110700   0.090   4.581   4.869  0.2406 -1.2810 -1.1679
 3567SOL    HW210701   0.160   4.475   4.952  0.0108 -0.1900  0.4561
 3568SOL     OW10702   2.192   2.653   5.103 -0.0091  0.2524  0.3541
 3568SOL    HW110703   2.285   2.677   5.109 -0.5775  2.5725  1.0004
 3568SOL    HW210704   2.185   2.607   5.020  1.8866 -0.9417  0.7850
 3569SOL     OW10705   4.163   3.099   4.087  0.1347 -0.1763 -0.1881
 3569SOL    HW110706   4.248   3.132   4.116  0.2619  0.8035 -1.5925
 3569SOL    HW210707   4.102   3.126   4.155  0.6247  0.9117 -0.1628
 3570SOL     OW10708   1.480   4.875   5.720 -0.4586  0.0083 -0.3730
 3570SOL    HW110709   1.562   4.844   5.682 -1.1710 -0.9502 -1.2024
 3570SOL    HW210710   1.450   4.803   5.775 -0.9278  0.2065 -0.3653
 3571SOL     OW10711   2.167   1.103   0.329  0.1841 -0.4383 -0.4582
 3571SOL    HW110712   2.245   1.099   0.274  0.1443  1.8443 -0.7796
 3571SOL    HW210713   2.112   1.032   0.298  1.4184 -1.0238 -1.3830
 3572SOL     OW10714   1.348   3.756   0.033 -0.5476  0.0299 -0.1225
 3572SOL    HW110715   1.260   3.729   0.058 -0.2968  0.5738  1.4643
 3572SOL    HW210716   1.397   3.757   0.115  0.0539  3.0640 -0.3984
 3573SOL     OW10717   3.734   3.603   5.321 -0.0963  0.3714  0.6824
 3573SOL    HW110718   3.753   3.570   5.234 -2.7454 -0.5119  0.3331
 3573SOL    HW210719   3.745   3.527   5.378 -0.3219  0.4215  0.7953
 3574SOL     OW10720   5.097   2.678   4.429  0.1194  0.1855 -0.3209
 3574SOL    HW110721   5.171   2.622   4.409  1.3440  1.6704 -0.1146
 3574SOL    HW210722   5.050   2.687   4.346 -0.1607 -1.2010 -0.3272
 3575SOL     OW10723   2.039   1.125   5.930 -0.1194 -0.2222 -0.2122
 3575SOL    HW110724   1.997   1.039   5.921 -0.4173 -0.2083  0.9132
 3575SOL    HW210725   2.060   1.151   5.840 -1.7251 -0.6360 -0.7395
 3576SOL     OW10726   1.531   3.811   2.863 -0.3661 -0.1454  0.2841
 3576SOL    HW110727   1.598   3.879   2.865 -0.1573 -0.3356  2.9107
 3576SOL    HW210728   1.455   3.851   2.904 -0.6393 -1.1201  0.7548
 3577SOL     OW10729   1.454   4.032   4.991 -0.0678  0.2991 -0.4979
 3577SOL    HW110730   1.510   4.055   5.065 -1.8621  2.6653  0.2536
 3577SOL    HW210731   1.471   4.100   4.925  1.3574 -1.6562 -2.2864
 3578SOL     OW10732   0.638   3.533   1.875  0.1497  0.0532 -0.1638
 3578SOL    HW110733   0.669   3.459   1.927  1.0744 -0.4099 -1.3194
 3578SOL    HW210734   0.718   3.572   1.840 -0.4209  0.6947 -0.7738
 3579SOL     OW10735   5.460   5.175   0.579 -0.7579  0.3506  0.5141
 3579SOL    HW110736   5.479   5.267   0.563 -0.6090  0.6806  2.3937
 3579SOL    HW210737   5.544   5.131   0.571 -0.7627  0.4161  0.0246
 3580SOL     OW10738   4.106   5.041   0.463 -0.1087 -0.2454  0.1806
 3580SOL    HW110739   4.150   5.123   0.441 -1.0350  0.1378 -0.3024
 3580SOL    HW210740   4.174   4.986   0.503  1.0373 -0.0334 -1.4087
 3581SOL     OW10741   5.625   5.917   1.448  0.4274  0.2101 -0.0375
 3581SOL    HW110742   5.643   5.973   1.372  2.0938  0.2088  0.3208
 3581SOL    HW210743   5.684   5.843   1.438 -0.1769 -0.3831  0.6682
 3582SOL     OW10744   2.236   3.339   1.253  0.0038 -1.0484  0.1668
 3582SOL    HW110745   2.327   3.366   1.259 -0.5108  0.6477  0.9316
 3582SOL    HW210746   2.235   3.274   1.183  2.0941 -2.4911  1.3692
 3583SOL     OW10747   2.807   0.815   2.318  0.3537  0.5591  0.1398
 3583SOL    HW110748   2.840   0.742   2.265  1.1680  0.2631  1.0465
 3583SOL    HW210749   2.870   0.825   2.389 -0.2560  1.5335  0.5693
 3584SOL     OW10750   2.820   1.469   0.447  0.1021 -0.2724  0.6228
 3584SOL    HW110751   2.750   1.528   0.474 -0.6452 -0.4836 -0.7409
 3584SOL    HW210752   2.814   1.396   0.508  0.1590  0.4305  1.4850
 3585SOL     OW10753   0.528   0.343   3.558  0.2041 -0.7098 -0.5357
 3585SOL    HW110754   0.478   0.380   3.486 -2.1885 -3.1650 -0.2927
 3585SOL    HW210755   0.521   0.248   3.545  1.1164 -1.1896  2.0180
 3586SOL     OW10756   2.833   3.516   2.271 -0.4872 -0.1064  0.4846
 3586SOL    HW110757   2.918   3.482   2.242 -1.4468 -1.4115 -0.9834
 3586SOL    HW210758   2.800   3.449   2.332 -0.7448  0.0746  0.5444
 3587SOL     OW10759   3.304   0.530   3.169  0.0553 -0.1722  0.1439
 3587SOL    HW110760   3.314   0.478   3.249 -0.1068 -0.2274  0.1304
 3587SOL    HW210761   3.215   0.510   3.139 -0.1245  0.3538  0.3069
 3588SOL     OW10762   3.437   4.580   2.543  0.0198 -0.1746 -0.1350
 3588SOL    HW110763   3.440   4.504   2.601 -0.9362 -0.1535 -0.0507
 3588SOL    HW210764   3.345   4.590   2.520 -0.0004  1.4501  0.5179
 3589SOL     OW10765   3.742   5.125   1.892 -0.1032  0.0652 -0.1151
 3589SOL    HW110766   3.797   5.047   1.897  0.6817  0.5578 -0.7703
 3589SOL    HW210767   3.804   5.197   1.884 -0.8551  0.5818 -1.6348
 3590SOL     OW10768   4.124   3.791   4.570 -0.0824  0.3856  0.1994
 3590SOL    HW110769   4.054   3.736   4.605  0.8288 -0.2884  1.0003
 3590SOL    HW210770   4.082   3.839   4.498 -0.8582 -1.5060 -0.6841
 3591SOL     OW10771   3.188   3.939   1.890 -0.3148 -0.1236 -0.1222
 3591SOL    HW110772   3.209   3.961   1.980  0.8209 -0.2057 -0.3449
 3591SOL    HW210773   3.268   3.959   1.841 -0.9863  0.1499 -1.1515
 3592SOL     OW10774   2.997   4.599   0.970  0.2657 -0.3665 -0.3457
 3592SOL    HW110775   3.045   4.676   1.001 -0.4944  1.3930 -3.1089
 3592SOL    HW210776   3.045   4.524   1.005  2.9176  1.3183 -0.0867
 3593SOL     OW10777   3.600   1.755   5.476  0.1309  0.0566  0.6288
 3593SOL    HW110778   3.617   1.764   5.570 -0.1352 -1.3037  0.8316
 3593SOL    HW210779   3.686   1.752   5.435  0.2475  0.6016  0.8240
 3594SOL     OW10780   5.505   4.320   3.621 -0.5991 -0.1964 -0.3961
 3594SOL    HW110781   5.594   4.353   3.634  0.2936 -2.6559  0.3009
 3594SOL    HW210782   5.514   4.253   3.553 -1.7024 -1.1387  0.3488
 3595SOL     OW10783   1.929   4.082   1.077  0.2755 -0.7452 -0.1695
 3595SOL    HW110784   1.896   3.999   1.110 -2.1726 -0.1070 -0.8019
 3595SOL    HW210785   1.892   4.089   0.989  1.7301  0.3152 -0.7394
 3596SOL     OW10786   3.911   3.661   0.837  0.1407 -0.2363 -0.0507
 3596SOL    HW110787   3.883   3.612   0.915 -0.2833 -0.5665 -0.4077
 3596SOL    HW210788   3.899   3.600   0.765  1.6306 -0.3340 -0.2491
 3597SOL     OW10789   1.502   3.811   5.637 -0.0058 -0.6647 -0.5185
 3597SOL    HW110790   1.531   3.855   5.717 -1.8406 -1.4552  0.6790
 3597SOL    HW210791   1.484   3.882   5.575  0.9372 -0.0082 -0.0632
 3598SOL     OW10792   0.733   5.447   2.337  0.2085  0.4936  0.0137
 3598SOL    HW110793   0.756   5.364   2.295  1.6978  0.5510  0.6187
 3598SOL    HW210794   0.762   5.514   2.276 -2.9035  0.6638 -1.4534
 3599SOL     OW10795   4.795   5.919   1.769  0.1561  0.3368 -0.0054
 3599SOL    HW110796   4.781   5.836   1.815 -0.2858 -0.6116 -1.7563
 3599SOL    HW210797   4.792   5.986   1.838 -1.9762 -0.8652  1.1681
 3600SOL     OW10798   4.373   0.697   5.732 -0.6112  0.6004  0.3929
 3600SOL    HW110799   4.300   0.651   5.690  0.6071  0.0399 -1.2049
 3600SOL    HW210800   4.336   0.731   5.814 -2.4219 -0.3936  0.0382
 3601SOL     OW10801   3.404   0.136   2.154 -0.2857  0.0419 -0.6050
 3601SOL    HW110802   3.324   0.188   2.157 -0.2359  0.0622  1.9440
 3601SOL    HW210803   3.422   0.113   2.245  2.1901 -0.6156 -1.1857
 3602SOL     OW10804   2.464   0.378   2.934 -0.3164  0.1335  0.5916
 3602SOL    HW110805   2.539   0.429   2.904 -0.2674  0.3981  1.1382
 3602SOL    HW210806   2.428   0.339   2.855  0.0682  0.4531  0.2529
 3603SOL     OW10807   2.718   3.923   3.062 -0.3444  0.3321  0.2940
 3603SOL    HW110808   2.756   3.997   3.015 -1.5392  1.4580  1.0388
 3603SOL    HW210809   2.632   3.910   3.021 -1.3565  1.2599  2.0225
 3604SOL     OW10810   5.406   5.211   2.095  0.3126 -0.2109  0.0075
 3604SOL    HW110811   5.380   5.270   2.166 -0.0370 -0.0661 -0.2405
 3604SOL    HW210812   5.411   5.125   2.137  1.1974  0.0445  0.4590
 3605SOL     OW10813   3.021   4.782   0.587 -0.6136  0.2752  0.0511
 3605SOL    HW110814   2.963   4.852   0.556 -1.0808  0.3235  0.9951
 3605SOL    HW210815   2.964   4.726   0.640  0.0679 -0.0146  0.4923
 3606SOL     OW10816   1.700   4.806   3.683 -0.1682 -0.3424  0.1905
 3606SOL    HW110817   1.666   4.858   3.757 -0.3139  0.4624 -0.4235
 3606SOL    HW210818   1.635   4.737   3.671 -0.9163  0.3902 -0.1046
 3607SOL     OW10819   1.755   5.636   3.601 -0.0574 -0.6143 -0.0889
 3607SOL    HW110820   1.773   5.586   3.521  0.3652 -0.7566  0.0919
 3607SOL    HW210821   1.832   5.621   3.657 -0.1960 -0.2431  0.2086
 3608SOL     OW10822   1.983   4.287   0.779  0.1694 -0.5877 -0.4267
 3608SOL    HW110823   2.003   4.344   0.854 -1.1090  0.6934 -1.0208
 3608SOL    HW210824   2.060   4.231   0.771  0.0109 -1.3330  2.3404
 3609SOL     OW10825   1.600   3.306   1.735 -0.4262 -0.0432 -0.0227
 3609SOL    HW110826   1.686   3.343   1.752 -0.5914  0.6471 -0.6032
 3609SOL    HW210827   1.588   3.239   1.802  1.1768 -1.2035 -0.8689
 3610SOL     OW10828   2.857   3.022   2.912 -0.3466 -0.0008  0.5805
 3610SOL    HW110829   2.842   2.951   2.975  2.4164  0.3218  1.7627
 3610SOL    HW210830   2.846   3.102   2.964 -0.1145  0.3271  0.1230
 3611SOL     OW10831   2.460   5.845   0.282 -0.1858  0.0214 -0.3523
 3611SOL    HW110832   2.419   5.780   0.224  1.3253 -1.4500  0.1501
 3611SOL    HW210833   2.523   5.890   0.226 -0.1001 -0.0553 -0.3173
 3612SOL     OW10834   4.245   4.065   0.368  0.1839 -0.4141 -0.3925
 3612SOL    HW110835   4.160   4.063   0.413 -0.0512  1.1386 -0.7171
 3612SOL    HW210836   4.226   4.105   0.283  1.1140 -0.7953 -0.7976
 3613SOL     OW10837   2.467   4.481   0.345  0.0686 -0.1811  0.2324
 3613SOL    HW110838   2.436   4.508   0.258 -0.2966  0.6244  0.6025
 3613SOL    HW210839   2.395   4.430   0.382  0.5707 -1.2778 -0.2786
 3614SOL     OW10840   1.450   4.077   1.711  0.1411  0.1911 -0.2863
 3614SOL    HW110841   1.419   4.145   1.651  1.3599  1.0799  0.0392
 3614SOL    HW210842   1.438   3.995   1.663  1.3612  0.9037 -1.8950
 3615SOL     OW10843   2.124   3.955   0.946  1.0390  0.0832 -0.1371
 3615SOL    HW110844   2.088   4.002   1.021  1.6822  1.0810 -0.4442
 3615SOL    HW210845   2.076   3.871   0.946 -1.0399  1.1962 -0.3168
 3616SOL     OW10846   4.576   4.859   1.013  1.2778 -0.0547 -0.2234
 3616SOL    HW110847   4.647   4.881   0.952  0.4821 -0.6674 -1.4113
 3616SOL    HW210848   4.546   4.773   0.984 -0.3846  0.4772 -0.1570
 3617SOL     OW10849   3.012   5.333   3.958 -0.0150  0.1408 -0.1700
 3617SOL    HW110850   2.936   5.359   3.906 -0.9101 -0.9920  0.5220
 3617SOL    HW210851   3.087   5.373   3.913 -0.9157  0.4388 -1.4564
 3618SOL     OW10852   0.742   1.531   5.093 -0.2261  0.0604 -0.4524
 3618SOL    HW110853   0.832   1.498   5.095 -0.4439 -0.5273  0.2757
 3618SOL    HW210854   0.697   1.483   5.163 -1.5502 -0.9587 -1.9009
 3619SOL     OW10855   5.452   3.950   5.595 -0.6887  0.3560 -0.0098
 3619SOL    HW110856   5.440   4.025   5.653  2.0000  1.7497 -1.1135
 3619SOL    HW210857   5.543   3.956   5.566 -1.2427 -1.6294 -2.5098
 3620SOL     OW10858   1.066   3.159   4.471  0.0325 -0.1612 -0.8767
 3620SOL    HW110859   0.999   3.167   4.539  1.5036  0.4023  0.5780
 3620SOL    HW210860   1.091   3.067   4.472 -0.7479 -0.3970 -1.4987
 3621SOL     OW10861   1.222   5.148   0.488 -0.3455  0.4248  0.1714
 3621SOL    HW110862   1.313   5.170   0.467 -0.2346  0.0448  0.2447
 3621SOL    HW210863   1.178   5.233   0.493 -0.5989  0.5420 -2.5454
 3622SOL     OW10864   0.178   5.360   5.627 -0.2359 -0.0606 -0.1845
 3622SOL    HW110865   0.101   5.320   5.586 -0.6175  0.3078  0.1659
 3622SOL    HW210866   0.187   5.316   5.711 -1.1924  1.1757  0.5998
 3623SOL     OW10867   2.486   3.694   1.616  0.2298 -0.3578 -0.3136
 3623SOL    HW110868   2.527   3.724   1.535 -0.2526 -1.5313 -1.0124
 3623SOL    HW210869   2.439   3.615   1.591  1.0566 -1.4257  1.3541
 3624SOL     OW10870   2.693   0.646   5.714  0.3150 -0.0237  0.4412
 3624SOL    HW110871   2.747   0.725   5.704 -0.7497  0.5404 -1.0797
 3624SOL    HW210872   2.720   0.589   5.642  0.1492 -0.5073  0.7577
 3625SOL     OW10873   5.015   4.190   2.649 -0.5727  0.2704 -0.2170
 3625SOL    HW110874   5.027   4.138   2.569 -0.5497  1.6125 -1.1245
 3625SOL    HW210875   5.074   4.264   2.638 -2.6730  2.0154 -0.3382
 3626SOL     OW10876   4.234   0.599   0.810  0.8991  0.5175  0.0931
 3626SOL    HW110877   4.314   0.634   0.769  0.0012  1.1432 -1.1993
 3626SOL    HW210878   4.163   0.635   0.757 -0.3046  0.7922  1.8254
 3627SOL     OW10879   2.478   2.803   4.892  0.3829  0.0812 -0.4037
 3627SOL    HW110880   2.470   2.738   4.822 -1.6538  0.9175 -1.0483
 3627SOL    HW210881   2.431   2.880   4.859  1.4951  1.3823  0.9050
 3628SOL     OW10882   1.804   5.374   2.154  0.1510  0.1509  0.8385
 3628SOL    HW110883   1.851   5.325   2.221 -1.7011 -1.7699  0.8434
 3628SOL    HW210884   1.796   5.314   2.081  0.9444  1.7547 -0.6264
 3629SOL     OW10885   3.823   5.017   2.700 -0.0719 -0.1273  0.3152
 3629SOL    HW110886   3.779   4.933   2.705  0.8372 -0.6186  0.1672
 3629SOL    HW210887   3.815   5.054   2.789 -2.2949  0.6007 -0.1221
 3630SOL     OW10888   0.950   0.307   5.592 -0.0467  0.3269  0.1368
 3630SOL    HW110889   1.010   0.239   5.619  0.0164 -0.3607 -1.5992
 3630SOL    HW210890   0.995   0.353   5.521 -0.8988  0.8582 -0.0826
 3631SOL     OW10891   4.279   3.012   0.976 -0.6730  0.5616 -0.4030
 3631SOL    HW110892   4.194   3.009   0.931 -0.9887 -1.1028  0.2110
 3631SOL    HW210893   4.283   2.929   1.024  1.3848  0.5262 -0.5548
 3632SOL     OW10894   1.892   5.533   2.699  0.3620  0.4581 -0.3985
 3632SOL    HW110895   1.866   5.440   2.694  1.5553 -0.0196  1.4846
 3632SOL    HW210896   1.877   5.566   2.610 -1.4012 -1.1623 -0.7844
 3633SOL     OW10897   3.866   5.337   3.552 -0.0226 -0.3208 -0.2071
 3633SOL    HW110898   3.921   5.411   3.525 -0.3635 -0.6219 -1.8018
 3633SOL    HW210899   3.792   5.339   3.491  0.1059 -2.1341 -0.4495
 3634SOL     OW10900   2.160   1.745   2.527  0.3485 -0.6969 -0.2495
 3634SOL    HW110901   2.228   1.686   2.495 -0.4270 -0.4150 -2.6464
 3634SOL    HW210902   2.192   1.832   2.506 -0.7489 -0.5642 -1.5473
 3635SOL     OW10903   4.095   5.354   5.024 -0.4523  0.4686  0.2478
 3635SOL    HW110904   4.023   5.300   5.058 -0.8097  1.0745  0.4697
 3635SOL    HW210905   4.157   5.360   5.097 -0.2509  0.0738  0.1085
 3636SOL     OW10906   2.788   2.629   0.755 -0.2250 -0.2942 -0.7528
 3636SOL    HW110907   2.819   2.710   0.796  1.0167 -1.2472  0.2654
 3636SOL    HW210908   2.862   2.597   0.705 -0.7714 -0.7025 -1.3117
 3637SOL     OW10909   2.865   4.530   0.731 -0.2217  0.4859 -0.5303
 3637SOL    HW110910   2.924   4.482   0.672  0.1262 -1.9609  1.6221
 3637SOL    HW210911   2.922   4.577   0.791 -0.4152 -0.5793  0.5366
 3638SOL     OW10912   4.250   3.853  -0.018  0.7645  0.3315  0.1340
 3638SOL    HW110913   4.222   3.766   0.012 -0.7911  0.6754 -0.2860
 3638SOL    HW210914   4.320   3.877   0.044 -2.1707  0.9463  3.5529
 3639SOL     OW10915   3.465   5.891   3.639  0.3400  0.0626  0.0568
 3639SOL    HW110916   3.471   5.973   3.688  2.2630 -0.6004  1.0427
 3639SOL    HW210917   3.484   5.823   3.704  2.9900 -0.8549 -1.5360
 3640SOL     OW10918   0.889   5.170   1.558  0.1150  0.2455 -0.3787
 3640SOL    HW110919   0.851   5.211   1.636 -0.8558 -0.4386 -0.4722
 3640SOL    HW210920   0.837   5.091   1.545  0.2192  0.3848 -1.7700
 3641SOL     OW10921   2.881   3.273   3.654  0.0068  0.4082  0.5742
 3641SOL    HW110922   2.900   3.282   3.748 -0.5249 -1.0042  0.8438
 3641SOL    HW210923   2.794   3.311   3.643 -0.9337 -1.4499  1.1295
 3642SOL     OW10924   5.499   4.007   0.401  0.0621 -0.0987 -0.1043
 3642SOL    HW110925   5.576   3.973   0.356 -0.1995 -0.2190 -0.4676
 3642SOL    HW210926   5.532   4.040   0.485  0.5373  0.0412 -0.3448
 3643SOL     OW10927   0.582   1.357   5.970  0.2123 -0.0854  0.5275
 3643SOL    HW110928   0.600   1.398   5.885 -0.2605 -0.1178  0.4101
 3643SOL    HW210929   0.661   1.374   6.022  0.8705 -0.8321 -0.1995
 3644SOL     OW10930   4.913   0.270   5.137 -0.3123  0.0754 -0.0489
 3644SOL    HW110931   4.886   0.326   5.210  2.3562  1.7665 -0.2116
 3644SOL    HW210932   5.001   0.240   5.162 -0.5005 -1.6468 -1.3285
 3645SOL     OW10933   0.661   3.315   2.311  0.6156  0.3859  0.2642
 3645SOL    HW110934   0.677   3.367   2.390 -0.4241  1.8201 -0.4383
 3645SOL    HW210935   0.566   3.308   2.306  0.7023 -0.5252 -0.3632
 3646SOL     OW10936   0.702   2.876   5.984  0.1323 -0.1105  0.0975
 3646SOL    HW110937   0.728   2.960   6.021 -1.1775 -0.4889  2.0301
 3646SOL    HW210938   0.675   2.896   5.895 -1.4525  1.8228  0.9286
 3647SOL     OW10939   1.096   5.150   5.918  0.4837  0.0238 -0.4335
 3647SOL    HW110940   1.098   5.061   5.884  0.4890 -0.4740  0.8318
 3647SOL    HW210941   1.118   5.142   6.011 -0.1316  1.2645 -0.1430
 3648SOL     OW10942   2.284   1.861   1.142 -0.1239 -0.1696 -0.3930
 3648SOL    HW110943   2.333   1.932   1.184 -0.2996 -0.2120 -0.1177
 3648SOL    HW210944   2.208   1.846   1.199 -0.8197  0.3493 -1.1776
 3649SOL     OW10945   0.614   5.370   5.144 -0.1714  0.2052 -0.3383
 3649SOL    HW110946   0.670   5.349   5.218 -1.4697  1.2175  0.9814
 3649SOL    HW210947   0.563   5.290   5.129  0.3816 -0.1381 -0.4328
 3650SOL     OW10948   5.115   1.088   2.927 -0.1954 -0.2334 -0.1418
 3650SOL    HW110949   5.185   1.153   2.931  0.7116 -1.2151  0.1088
 3650SOL    HW210950   5.067   1.110   2.847  0.1614  0.6746 -0.1187
 3651SOL     OW10951   2.350   3.820   2.375  0.1677  0.4404 -0.8232
 3651SOL    HW110952   2.336   3.754   2.443  1.6343 -2.1638 -2.8661
 3651SOL    HW210953   2.365   3.901   2.423 -2.6117 -0.4173  1.7953
 3652SOL     OW10954   1.034   4.267   0.072  0.1298  0.3868  0.1338
 3652SOL    HW110955   0.960   4.294   0.019  0.4796  0.2141 -0.4569
 3652SOL    HW210956   1.065   4.347   0.115  0.3022  0.6698 -0.5115
 3653SOL     OW10957   2.297   3.440   0.717  0.4257  0.4807 -0.3165
 3653SOL    HW110958   2.307   3.375   0.787  0.3705 -1.7540 -2.2708
 3653SOL    HW210959   2.362   3.415   0.652 -0.4651  1.6422 -1.7038
 3654SOL     OW10960   2.517   3.914   5.893 -0.4539 -0.2477  0.1322
 3654SOL    HW110961   2.442   3.972   5.887  0.6363  1.3144  0.9714
 3654SOL    HW210962   2.527   3.896   5.987  0.2686 -0.3390  0.0506
 3655SOL     OW10963   5.174   4.858   4.134  0.2552  0.6049 -0.0598
 3655SOL    HW110964   5.242   4.813   4.184  0.7413  1.1745 -0.1968
 3655SOL    HW210965   5.100   4.862   4.194  0.7014  0.9277  0.4778
 3656SOL     OW10966   0.419   3.866   4.631  0.2752 -0.1411 -0.4683
 3656SOL    HW110967   0.379   3.779   4.634 -1.8268  0.7745 -0.0749
 3656SOL    HW210968   0.459   3.878   4.717 -1.4996  0.1597  0.3502
 3657SOL     OW10969   1.171   4.436   2.304  0.2333  0.1555 -0.4011
 3657SOL    HW110970   1.129   4.499   2.245  1.1571 -0.7900 -2.1526
 3657SOL    HW210971   1.244   4.485   2.342  0.4012  0.4309 -1.0513
 3658SOL     OW10972   2.370   4.773   1.068  0.5639  0.3045  0.0184
 3658SOL    HW110973   2.343   4.715   0.996  1.6079 -0.3718  0.1556
 3658SOL    HW210974   2.455   4.809   1.039 -1.3069  4.1956 -1.4686
 3659SOL     OW10975   2.028   4.832   5.079  0.3820  0.3156  0.0286
 3659SOL    HW110976   2.034   4.737   5.087 -1.8311  0.2447  1.8481
 3659SOL    HW210977   1.935   4.851   5.090  0.7114  2.6849 -0.7726
 3660SOL     OW10978   3.583   5.816   4.629 -0.4212 -0.2709 -0.0722
 3660SOL    HW110979   3.665   5.766   4.635  0.0119  0.5759  1.5416
 3660SOL    HW210980   3.534   5.790   4.707 -1.1989  0.0968 -0.4361
 3661SOL     OW10981   3.234   4.683   2.207 -0.0166 -0.2629  0.0165
 3661SOL    HW110982   3.199   4.771   2.219  0.0952 -0.3926  1.4169
 3661SOL    HW210983   3.309   4.694   2.148 -1.6571  0.1734 -2.0934
 3662SOL     OW10984   2.355   3.349   2.299 -0.5825 -0.2139 -0.6388
 3662SOL    HW110985   2.421   3.297   2.346 -1.1524 -1.0469 -0.7504
 3662SOL    HW210986   2.286   3.286   2.277 -1.3242  0.6126 -0.7030
 3663SOL     OW10987   4.214   4.249   5.156  0.2208 -0.0605 -0.1972
 3663SOL    HW110988   4.138   4.226   5.102  1.3928 -3.8909 -0.5273
 3663SOL    HW210989   4.184   4.236   5.246  0.3261 -1.0867 -0.3042
 3664SOL     OW10990   4.066   0.051   5.908 -0.4888 -0.0067  0.6095
 3664SOL    HW110991   4.063   0.066   6.003  0.1115 -1.8583  0.9566
 3664SOL    HW210992   4.083  -0.042   5.899 -2.9097 -0.3542 -1.3558
 3665SOL     OW10993   4.576   4.368   2.734  0.3769  0.9935 -0.6905
 3665SOL    HW110994   4.547   4.312   2.805 -0.2504  0.0042 -1.6885
 3665SOL    HW210995   4.572   4.457   2.770 -0.5073  0.5698  0.3100
 3666SOL     OW10996   5.604   2.850   5.451  0.0759 -0.1422  0.5900
 3666SOL    HW110997   5.510   2.840   5.466  0.3908 -2.7099  1.2491
 3666SOL    HW210998   5.637   2.890   5.532 -0.4286  0.9079  0.2974
 3667SOL     OW10999   4.079   5.405   2.718 -0.2534 -0.0297 -0.1332
 3667SOL    HW111000   4.146   5.444   2.775  1.4050  0.7596 -2.4681
 3667SOL    HW211001   4.018   5.477   2.700 -0.4448 -0.1223  0.1282
 3668SOL     OW11002   3.041   1.935   1.539 -0.2167  0.0786  0.5594
 3668SOL    HW111003   3.097   2.008   1.512  0.4037 -0.0174  1.4964
 3668SOL    HW211004   3.098   1.858   1.532 -0.4196 -0.1090  0.9238
 3669SOL     OW11005   2.585   1.054   3.734  0.1465 -0.1867 -0.5343
 3669SOL    HW111006   2.668   1.059   3.780  0.0268 -0.9736 -0.2180
 3669SOL    HW211007   2.606   1.079   3.644  0.6322  0.0699 -0.3526
 3670SOL     OW11008   3.686   1.706   4.508 -0.5782 -0.5438 -0.4726
 3670SOL    HW111009   3.685   1.728   4.601  1.9682  1.2522 -0.7680
 3670SOL    HW211010   3.728   1.620   4.504 -1.2422 -0.9003  0.0519
 3671SOL     OW11011   2.814   4.688   2.459 -0.5150  0.2444  0.6050
 3671SOL    HW111012   2.832   4.734   2.377 -1.3434 -1.0292 -0.3109
 3671SOL    HW211013   2.774   4.605   2.433 -0.6341 -0.2701  2.2895
 3672SOL     OW11014   3.429   3.860   0.495  0.0270 -0.0302  0.8409
 3672SOL    HW111015   3.344   3.831   0.462  0.2096  1.2472 -0.8264
 3672SOL    HW211016   3.480   3.880   0.417  2.2769 -1.7568  1.7315
 3673SOL     OW11017   2.897   5.771   3.707  0.3380  0.9780  0.1362
 3673SOL    HW111018   2.896   5.764   3.802  0.5198 -0.7161  0.0501
 3673SOL    HW211019   2.961   5.704   3.679 -0.0977  1.0859 -1.1922
 3674SOL     OW11020   4.228   5.876   2.036  0.6196 -0.4290 -0.1782
 3674SOL    HW111021   4.170   5.940   1.994 -0.3145 -1.3208 -0.2800
 3674SOL    HW211022   4.312   5.888   1.992  0.5291  0.8776 -0.0435
 3675SOL     OW11023   1.744   4.746   5.673  0.4920  0.2489  0.1341
 3675SOL    HW111024   1.768   4.757   5.765 -0.5969 -0.1151  0.4698
 3675SOL    HW211025   1.811   4.796   5.625 -0.1161  2.2507  1.2317
 3676SOL     OW11026   3.062   4.986   2.501 -0.5458 -0.2214 -0.2772
 3676SOL    HW111027   3.004   4.910   2.492 -0.9903  0.2788 -1.9844
 3676SOL    HW211028   3.010   5.060   2.469 -0.3047  0.9503  1.7855
 3677SOL     OW11029   0.359   1.211   4.225 -0.5277 -0.1978 -0.1912
 3677SOL    HW111030   0.401   1.208   4.139 -0.2497 -0.2712 -0.0561
 3677SOL    HW211031   0.407   1.279   4.273 -0.3248 -0.5336  0.0865
 3678SOL     OW11032   3.241   2.800   1.130  0.0818 -0.3491  0.0646
 3678SOL    HW111033   3.183   2.754   1.069 -1.0701  0.7162  0.3160
 3678SOL    HW211034   3.308   2.839   1.074  1.5248 -2.8633 -0.0891
 3679SOL     OW11035   3.641   1.349   3.339  0.0865  0.3858  0.9353
 3679SOL    HW111036   3.636   1.443   3.352 -0.3533  0.3501  1.0557
 3679SOL    HW211037   3.735   1.330   3.329  0.0287  1.1609 -1.7143
 3680SOL     OW11038   1.927   4.515   3.882 -0.3119 -0.3877  0.4165
 3680SOL    HW111039   2.015   4.552   3.890  0.0346 -1.1089  0.0130
 3680SOL    HW211040   1.895   4.550   3.798 -0.2692 -0.4150  0.3888
 3681SOL     OW11041   4.216   0.817   2.594 -0.3053  0.7738  0.0622
 3681SOL    HW111042   4.270   0.751   2.550  0.3967  1.9353 -0.8529
 3681SOL    HW211043   4.215   0.789   2.686 -0.5503 -0.8519 -0.4110
 3682SOL     OW11044   5.912   3.239   5.260 -0.3134 -0.6705  0.0194
 3682SOL    HW111045   5.932   3.153   5.223 -1.4178 -0.9891  0.1091
 3682SOL    HW211046   5.830   3.226   5.308  1.0119 -0.2603  2.5615
 3683SOL     OW11047   1.388   4.533   2.500 -0.0447 -0.2983  0.1421
 3683SOL    HW111048   1.479   4.505   2.492  0.3788  0.9593  0.2942
 3683SOL    HW211049   1.366   4.516   2.592 -0.4391 -1.8842 -0.2080
 3684SOL     OW11050   1.451   4.239   1.466 -0.3625  0.1014 -0.3110
 3684SOL    HW111051   1.520   4.237   1.400 -0.9642 -2.2239 -0.9546
 3684SOL    HW211052   1.371   4.217   1.418 -1.0549 -0.2399  0.9477
 3685SOL     OW11053   5.068   4.195   3.267  0.4009  0.2299  0.8792
 3685SOL    HW111054   4.993   4.156   3.312  1.1346 -0.0117  1.9284
 3685SOL    HW211055   5.131   4.213   3.336  1.6348 -0.2922 -0.0686
 3686SOL     OW11056   0.225   5.415   0.358 -0.3905  0.0857 -0.4324
 3686SOL    HW111057   0.284   5.439   0.287 -0.3433 -0.4270 -0.5691
 3686SOL    HW211058   0.265   5.453   0.436 -0.5209  0.7837 -0.6908
 3687SOL     OW11059   3.954   2.917   0.769  1.1279  0.7252 -0.3064
 3687SOL    HW111060   3.863   2.923   0.743  0.8101 -0.2987  0.4681
 3687SOL    HW211061   4.004   2.925   0.688  0.3617  1.5041 -0.7030
 3688SOL     OW11062   1.526   4.602   1.992 -0.0872 -0.1588 -0.0683
 3688SOL    HW111063   1.499   4.631   2.079  0.1684  1.0468 -0.3759
 3688SOL    HW211064   1.605   4.651   1.973  0.3976 -1.1138 -0.6035
 3689SOL     OW11065   2.267   1.593   1.106  0.1070  0.7163 -0.5851
 3689SOL    HW111066   2.304   1.681   1.098  2.6363 -0.2515 -0.4873
 3689SOL    HW211067   2.218   1.580   1.025  0.9506  1.6794 -1.2778
 3690SOL     OW11068   4.445   4.634   4.499 -0.2650 -0.0496 -0.0057
 3690SOL    HW111069   4.362   4.594   4.472  1.0998 -1.3768 -2.7347
 3690SOL    HW211070   4.434   4.727   4.479 -1.2805 -0.1254  0.1604
 3691SOL     OW11071   4.029   5.354   2.391 -0.2016  0.1097 -0.0791
 3691SOL    HW111072   4.070   5.267   2.393  1.2461  0.7460 -0.8100
 3691SOL    HW211073   4.099   5.414   2.414 -0.4203  1.3354 -2.3410
 3692SOL     OW11074   5.066   0.890   5.625  0.2611 -0.2209  0.2242
 3692SOL    HW111075   5.070   0.893   5.720  2.1392 -2.6093  0.3375
 3692SOL    HW211076   4.974   0.868   5.606 -0.4205  1.4621  1.3621
 3693SOL     OW11077   3.468   4.643   2.036 -0.0585 -0.0747  0.2827
 3693SOL    HW111078   3.512   4.563   2.066  0.1423 -0.6124 -1.3736
 3693SOL    HW211079   3.523   4.714   2.070  0.8587 -0.6930  0.1352
 3694SOL     OW11080   3.421   1.694   1.405  0.3957 -0.2754 -0.7027
 3694SOL    HW111081   3.410   1.613   1.355  0.2778  0.5688 -2.1016
 3694SOL    HW211082   3.339   1.741   1.392 -0.1133 -0.5293  1.2964
 3695SOL     OW11083   1.253   5.734   5.594  0.2350 -0.1367  0.0185
 3695SOL    HW111084   1.347   5.742   5.611  0.3159  1.3938 -0.8830
 3695SOL    HW211085   1.226   5.657   5.642  1.8819 -0.3732  0.6326
 3696SOL     OW11086   5.789   4.454   1.512 -0.1260  0.3830 -0.1761
 3696SOL    HW111087   5.737   4.482   1.587  0.2992  1.2308 -0.1871
 3696SOL    HW211088   5.880   4.468   1.539  0.3938 -3.7714  0.9769
 3697SOL     OW11089   5.319   5.683   6.021  0.3850 -0.7067  0.1125
 3697SOL    HW111090   5.291   5.594   6.000 -0.8540 -0.2854 -0.1195
 3697SOL    HW211091   5.313   5.730   5.938 -0.1838 -0.1151  0.4801
 3698SOL     OW11092   5.982   0.695   2.803 -0.3740  0.5856 -0.1262
 3698SOL    HW111093   6.027   0.644   2.736  0.0117  0.1753  0.4448
 3698SOL    HW211094   5.978   0.638   2.879 -0.8396  1.0383  0.1962
 3699SOL     OW11095   2.596   3.379   2.693 -0.0899  0.4341  0.3796
 3699SOL    HW111096   2.583   3.380   2.788  2.2106 -1.2016  0.7858
 3699SOL    HW211097   2.558   3.295   2.665  1.5178 -0.3041  0.2996
 3700SOL     OW11098   2.373   4.426   3.278 -0.0050  0.1596  0.0778
 3700SOL    HW111099   2.415   4.512   3.267 -1.2237  0.5874 -1.4723
 3700SOL    HW211100   2.441   4.373   3.320  1.0947  1.6091  0.2539
 3701SOL     OW11101   3.888   5.857   2.958  0.2405  0.4264 -0.4240
 3701SOL    HW111102   3.902   5.949   2.936 -1.7812  1.1820  1.0524
 3701SOL    HW211103   3.840   5.860   3.041 -0.0647 -1.9649 -0.4446
 3702SOL     OW11104   3.462   4.886   0.869  0.0939  0.4834  0.1040
 3702SOL    HW111105   3.370   4.894   0.844 -0.3441 -0.3265  1.3606
 3702SOL    HW211106   3.477   4.791   0.873  1.0368  0.6089 -0.2577
 3703SOL     OW11107   5.876   5.519   5.250  1.0032 -0.4521  0.3441
 3703SOL    HW111108   5.915   5.509   5.163  0.0308 -0.2784 -0.1178
 3703SOL    HW211109   5.950   5.541   5.307  2.0389 -2.7638  0.0086
 3704SOL     OW11110   0.663   2.438   5.397  0.2496 -0.3084  0.0793
 3704SOL    HW111111   0.712   2.444   5.479  1.3898 -1.2674 -0.5035
 3704SOL    HW211112   0.571   2.444   5.424  0.5387 -1.8674  1.6031
 3705SOL     OW11113   0.525   3.255   1.590  0.6281  0.0782 -0.4278
 3705SOL    HW111114   0.478   3.324   1.636 -0.1257 -1.5685  1.4404
 3705SOL    HW211115   0.555   3.196   1.660 -0.2146 -2.3647 -1.9915
 3706SOL     OW11116   1.511   5.409   2.161  0.5513 -0.2949  0.0430
 3706SOL    HW111117   1.604   5.397   2.139  0.6628  1.8026 -0.8791
 3706SOL    HW211118   1.464   5.357   2.096  1.0537  1.1058 -1.5174
 3707SOL     OW11119   4.095   5.637   4.168 -0.0053  0.2913  0.5899
 3707SOL    HW111120   4.098   5.558   4.222 -0.9562 -0.1807 -0.0120
 3707SOL    HW211121   4.010   5.676   4.187 -0.5099 -0.0708 -0.7950
 3708SOL     OW11122   0.793   3.513   1.059 -0.5605 -0.6205  0.8196
 3708SOL    HW111123   0.742   3.585   1.022  1.2543  0.4921  0.3527
 3708SOL    HW211124   0.812   3.540   1.148  1.1998  0.1175  0.2517
 3709SOL     OW11125   1.448   1.787   5.183  0.6912 -0.2070 -0.3211
 3709SOL    HW111126   1.525   1.835   5.212 -0.0635  1.4842 -0.9990
 3709SOL    HW211127   1.458   1.700   5.221  2.7529  0.0759 -0.1264
 3710SOL     OW11128   4.033   4.650   5.964 -0.2060 -0.0128 -0.2600
 3710SOL    HW111129   4.015   4.620   6.053 -3.8175  0.1705 -0.7581
 3710SOL    HW211130   4.010   4.576   5.909 -1.5608  0.9994 -1.1294
 3711SOL     OW11131   2.364   0.410   1.232 -0.2106 -0.0450 -0.0385
 3711SOL    HW111132   2.275   0.426   1.201 -0.1603 -2.2411 -1.5385
 3711SOL    HW211133   2.420   0.437   1.158  0.7126  3.9436  1.8346
 3712SOL     OW11134   4.460   4.776   4.046 -0.4175  0.4039  0.4317
 3712SOL    HW111135   4.425   4.687   4.047  0.2432  0.1409  1.1134
 3712SOL    HW211136   4.433   4.811   3.961 -2.8074  0.4394  1.1341
 3713SOL     OW11137   4.549   4.634   2.758  0.7146  0.0648 -0.3554
 3713SOL    HW111138   4.505   4.643   2.674 -0.5489 -0.8742  0.1671
 3713SOL    HW211139   4.534   4.718   2.802  0.7395  0.2931 -0.7812
 3714SOL     OW11140   1.729   3.317   4.360  0.0928  0.1251 -0.3304
 3714SOL    HW111141   1.781   3.365   4.295 -1.1244  2.4340  0.2937
 3714SOL    HW211142   1.705   3.382   4.425 -1.1754 -1.4873  0.9230
 3715SOL     OW11143   2.180   4.085   2.475 -0.0888 -0.7621  0.1834
 3715SOL    HW111144   2.215   4.144   2.409  1.4387 -2.3623 -0.5136
 3715SOL    HW211145   2.241   4.094   2.549  0.6384 -1.9999 -0.2334
 3716SOL     OW11146   2.653   0.526   2.827  0.3253 -0.1294 -0.1743
 3716SOL    HW111147   2.685   0.604   2.873 -2.5240  0.9430  0.1516
 3716SOL    HW211148   2.689   0.533   2.739 -0.9013  2.2855 -0.5414
 3717SOL     OW11149   5.706   5.977   4.904  0.1499  0.0610  0.0435
 3717SOL    HW111150   5.698   5.905   4.841 -0.0833  0.1963 -0.0868
 3717SOL    HW211151   5.627   6.029   4.889  1.6148  1.9221 -1.8573
 3718SOL     OW11152   1.070   2.755   3.500  0.1655 -0.1702 -0.1882
 3718SOL    HW111153   1.086   2.726   3.589  1.8303  0.8588 -0.1004
 3718SOL    HW211154   1.010   2.829   3.510 -0.5979 -0.8042 -0.0354
 3719SOL     OW11155   0.341   3.915   5.652 -0.2384 -0.2201 -0.1597
 3719SOL    HW111156   0.420   3.888   5.698 -0.3524 -1.3815 -0.6103
 3719SOL    HW211157   0.295   3.972   5.714  0.4423 -0.3612  0.4863
 3720SOL     OW11158   1.391   0.819   1.993  0.4383  0.1016  0.3107
 3720SOL    HW111159   1.468   0.871   2.013  0.6896  0.4814 -1.4536
 3720SOL    HW211160   1.413   0.731   2.023  1.2815  0.3551  0.4685
 3721SOL     OW11161   4.155   0.743   0.442 -0.4668  0.0437 -0.2794
 3721SOL    HW111162   4.176   0.786   0.525  1.1424 -1.9567  0.4312
 3721SOL    HW211163   4.170   0.811   0.376  1.0714  0.8813  0.8473
 3722SOL     OW11164   3.759   3.945   1.558  0.6889 -0.0254 -0.2815
 3722SOL    HW111165   3.828   4.011   1.551  1.4256 -0.8114 -0.7686
 3722SOL    HW211166   3.789   3.888   1.629  1.7741 -1.7070 -1.9783
 3723SOL     OW11167   2.446   0.010   1.629 -0.0095 -0.1477  0.1002
 3723SOL    HW111168   2.435   0.075   1.559 -0.8822 -1.4851 -1.0614
 3723SOL    HW211169   2.464   0.062   1.707 -0.3688  1.4779 -0.8489
 3724SOL     OW11170   5.705   5.792   4.714 -0.5141 -0.0390  0.2639
 3724SOL    HW111171   5.677   5.839   4.635 -0.7585  1.5450  1.2363
 3724SOL    HW211172   5.682   5.701   4.698  0.5859 -0.0007 -2.0104
 3725SOL     OW11173   0.390   5.437   2.845  0.2821  0.4647  0.0321
 3725SOL    HW111174   0.301   5.445   2.810 -0.0050 -1.1443  0.3451
 3725SOL    HW211175   0.423   5.527   2.848 -1.6792  1.1948  0.8338
 3726SOL     OW11176   1.939   0.616   4.926  0.0790 -0.1944 -0.1281
 3726SOL    HW111177   1.909   0.546   4.869 -0.4261  0.0631 -0.1858
 3726SOL    HW211178   2.035   0.612   4.920  0.0709 -1.2085  0.2848
 3727SOL     OW11179   3.265   3.300   0.793 -0.0029  0.1432  0.4383
 3727SOL    HW111180   3.356   3.315   0.769 -0.7346 -0.3112 -3.1985
 3727SOL    HW211181   3.234   3.386   0.824  1.0955  0.9195 -0.5157
 3728SOL     OW11182   4.916   4.277   0.958 -0.2338 -0.4728  0.2478
 3728SOL    HW111183   4.823   4.255   0.951 -0.4772  0.4930  0.3871
 3728SOL    HW211184   4.932   4.338   0.886  0.0965  0.0301  0.7442
 3729SOL     OW11185   2.535   1.470   5.725 -0.0093  0.0355 -0.5116
 3729SOL    HW111186   2.490   1.395   5.686  0.1771 -0.0670 -0.5328
 3729SOL    HW211187   2.500   1.477   5.813  1.3381 -1.2610  0.1715
 3730SOL     OW11188   4.963   5.087   1.906  0.5880  0.6939  0.2411
 3730SOL    HW111189   4.876   5.073   1.945  0.7403 -0.7423  0.1312
 3730SOL    HW211190   4.951   5.068   1.813  0.9456  0.8067  0.1714
 3731SOL     OW11191   3.592   5.606   4.366 -0.0724 -0.2145 -0.3669
 3731SOL    HW111192   3.553   5.523   4.338  1.2370 -1.3402  0.9516
 3731SOL    HW211193   3.531   5.673   4.335 -2.8433 -1.8153  1.1980
 3732SOL     OW11194   0.467   5.120   2.351  0.2420  0.1531  0.2015
 3732SOL    HW111195   0.410   5.142   2.425  0.2362  0.2493  0.1681
 3732SOL    HW211196   0.414   5.061   2.297 -1.0797  2.7221 -1.5328
 3733SOL     OW11197   1.883   3.842   0.254 -0.1181 -0.4406  0.4227
 3733SOL    HW111198   1.975   3.849   0.281 -0.3982  1.0009  1.1198
 3733SOL    HW211199   1.886   3.792   0.172  1.2346 -0.8419  0.6897
 3734SOL     OW11200   5.416   0.478   0.599 -0.6679  0.1055 -0.2093
 3734SOL    HW111201   5.424   0.499   0.506  0.7216 -1.5859 -0.5040
 3734SOL    HW211202   5.427   0.383   0.604 -0.8938  0.1343  1.6759
 3735SOL     OW11203   3.343   5.334   2.251  0.2875  1.1551  0.1578
 3735SOL    HW111204   3.382   5.321   2.338  0.7071  0.8035 -0.0809
 3735SOL    HW211205   3.416   5.360   2.195  0.5466 -1.2273 -0.7016
 3736SOL     OW11206   1.544   5.324   4.457 -0.2149 -0.7233  0.2595
 3736SOL    HW111207   1.526   5.363   4.543 -2.8910 -1.1178 -0.0264
 3736SOL    HW211208   1.470   5.265   4.442  1.0165 -1.9027 -1.6384
 3737SOL     OW11209   3.282   2.886   0.633 -0.8833  0.3849  0.1504
 3737SOL    HW111210   3.195   2.902   0.671 -0.8114  0.6475  0.2045
 3737SOL    HW211211   3.302   2.966   0.586 -1.1427 -0.0783 -0.7755
 3738SOL     OW11212   5.266   4.283   3.432  0.1338  0.0464 -0.7013
 3738SOL    HW111213   5.346   4.230   3.441 -0.5985 -1.0500 -0.5430
 3738SOL    HW211214   5.224   4.279   3.518  0.3265  1.3432 -0.5254
 3739SOL     OW11215   2.432   4.514   2.078 -0.6037  0.3530 -0.1617
 3739SOL    HW111216   2.492   4.487   2.008 -1.3550 -0.4686 -0.5153
 3739SOL    HW211217   2.407   4.431   2.120 -1.9311  0.6115 -0.3977
 3740SOL     OW11218   4.800   4.818   5.673  0.6649 -0.0302  0.4096
 3740SOL    HW111219   4.767   4.748   5.728 -0.2611  0.8664  1.0404
 3740SOL    HW211220   4.734   4.828   5.603 -0.6323  1.9006  1.7864
 3741SOL     OW11221   3.151   1.655   1.580  0.1114 -0.6333  0.5368
 3741SOL    HW111222   3.186   1.574   1.544  0.7129 -0.2529  0.2344
 3741SOL    HW211223   3.215   1.681   1.646  0.0433 -0.2915  0.4710
 3742SOL     OW11224   4.718   4.504   1.878 -0.2741 -0.6563 -0.5893
 3742SOL    HW111225   4.714   4.538   1.967 -0.1251 -1.5390 -0.2328
 3742SOL    HW211226   4.627   4.494   1.852 -0.3216  0.0847 -0.7367
 3743SOL     OW11227   2.602   5.771   2.131 -0.4976  0.2094 -0.1465
 3743SOL    HW111228   2.681   5.725   2.158  0.8646  2.3598 -0.2359
 3743SOL    HW211229   2.630   5.862   2.119 -3.1032  1.1646  0.3347
 3744SOL     OW11230   3.321   2.727   1.883 -0.3232 -0.6298  0.3324
 3744SOL    HW111231   3.308   2.803   1.825  0.2162 -0.3551  0.5639
 3744SOL    HW211232   3.233   2.691   1.895 -0.8666  1.0573  1.7164
 3745SOL     OW11233   1.799   3.608   0.383  0.5601  0.5070 -0.0831
 3745SOL    HW111234   1.707   3.630   0.398  0.9828  1.6613  0.9555
 3745SOL    HW211235   1.826   3.665   0.311  0.6417  0.6697  0.0751
 3746SOL     OW11236   2.712   4.298   4.353 -0.0041  0.7669  0.4033
 3746SOL    HW111237   2.794   4.298   4.303 -0.0465  0.4752  0.3304
 3746SOL    HW211238   2.646   4.329   4.290 -0.0176  0.6233  0.3467
 3747SOL     OW11239   1.868   5.177   0.934  0.3014  0.0665 -0.3721
 3747SOL    HW111240   1.890   5.227   0.855 -0.3407  1.2360  0.1631
 3747SOL    HW211241   1.884   5.086   0.910 -1.0773  0.2678 -2.2834
 3748SOL     OW11242   1.133   4.998   5.189 -0.2690  0.0896 -0.0337
 3748SOL    HW111243   1.076   5.002   5.112  0.1343  1.8590 -0.2840
 3748SOL    HW211244   1.077   4.964   5.259 -0.5596 -1.8341 -1.1476
 3749SOL     OW11245   1.346   5.943   3.379 -0.2129 -0.0304 -0.3782
 3749SOL    HW111246   1.426   5.896   3.402  0.4126  1.0839 -0.2095
 3749SOL    HW211247   1.290   5.876   3.337  0.9086 -0.7605 -0.7622
 3750SOL     OW11248   5.505   3.449   5.116 -0.4295 -0.2354  0.9312
 3750SOL    HW111249   5.423   3.499   5.119 -0.9949 -0.8109 -1.8862
 3750SOL    HW211250   5.571   3.510   5.149 -1.3490  1.8927 -0.8281
 3751SOL     OW11251   5.624   4.839   0.761 -0.2497 -0.6414 -0.7300
 3751SOL    HW111252   5.552   4.900   0.774 -0.1881 -1.0451  2.1004
 3751SOL    HW211253   5.584   4.764   0.716 -0.4451  1.0992 -3.6898
 3752SOL     OW11254   2.816   5.019   0.219 -0.1368 -0.2493 -0.2392
 3752SOL    HW111255   2.851   4.971   0.294 -0.7941  0.0897  0.2940
 3752SOL    HW211256   2.827   4.959   0.145 -0.6629 -1.1040  0.3572
 3753SOL     OW11257   2.282   5.469   5.452 -0.4861  0.1724  0.3914
 3753SOL    HW111258   2.242   5.528   5.387 -0.5054 -1.8369 -1.5240
 3753SOL    HW211259   2.209   5.415   5.482 -0.5655  1.3437  2.5103
 3754SOL     OW11260   0.277   4.832   3.086  0.4354  0.3911  0.4595
 3754SOL    HW111261   0.253   4.848   3.178  0.6175 -0.0467  0.5859
 3754SOL    HW211262   0.274   4.919   3.045  1.1897  0.7264  1.0764
 3755SOL     OW11263   3.252   5.933   4.807  0.4225  0.1067 -0.9057
 3755SOL    HW111264   3.249   5.884   4.724 -1.0385  0.1148 -0.8955
 3755SOL    HW211265   3.204   6.014   4.788 -0.0752  0.0327 -0.0081
 3756SOL     OW11266   0.097   4.817   2.817  0.6024  0.0423 -0.2957
 3756SOL    HW111267   0.160   4.873   2.861  0.7476  0.3013 -0.8268
 3756SOL    HW211268   0.144   4.735   2.803 -0.0289 -0.7206  1.6822
 3757SOL     OW11269   5.929   5.779   0.235  0.0034 -0.0686 -0.2388
 3757SOL    HW111270   5.946   5.864   0.276  0.0967 -0.7457  1.2033
 3757SOL    HW211271   6.006   5.763   0.181 -0.6423  1.3767 -1.6743
 3758SOL     OW11272   4.890   4.057   5.498  0.3779 -0.0223 -0.0911
 3758SOL    HW111273   4.965   4.068   5.440 -0.1174 -0.1850 -0.7685
 3758SOL    HW211274   4.881   3.963   5.509  1.1581  0.0346  1.1684
 3759SOL     OW11275   1.359   4.630   3.902  0.3134 -0.3175 -0.6353
 3759SOL    HW111276   1.319   4.601   3.820 -0.2310 -0.7783 -0.2156
 3759SOL    HW211277   1.287   4.628   3.966  0.1825  2.1546 -0.6178
 3760SOL     OW11278   0.485   3.766   4.357 -0.2151  0.1220 -1.1100
 3760SOL    HW111279   0.486   3.819   4.436  3.7219 -0.6535 -0.4027
 3760SOL    HW211280   0.455   3.679   4.385 -2.3095  0.7326 -1.3235
 3761SOL     OW11281   3.017   1.543   5.281 -0.2600 -0.8301 -0.1035
 3761SOL    HW111282   3.110   1.561   5.275 -0.5235  0.9188  0.3126
 3761SOL    HW211283   3.011   1.457   5.321  1.1676 -0.7446  0.3359
 3762SOL     OW11284   4.040   5.202   3.178  0.3327 -0.2360  0.5009
 3762SOL    HW111285   4.004   5.290   3.173  0.0573 -0.2597  1.7659
 3762SOL    HW211286   3.980   5.149   3.125 -0.3965  0.0619  1.0160
 3763SOL     OW11287   5.522   0.786   1.215  0.4565  0.0138 -0.5320
 3763SOL    HW111288   5.466   0.720   1.257  0.3468 -0.3707 -1.2735
 3763SOL    HW211289   5.471   0.816   1.140 -0.1630  2.0588  0.6241
 3764SOL     OW11290   3.604   1.190   0.116  0.0469 -0.4570 -0.1339
 3764SOL    HW111291   3.658   1.210   0.040  2.3107 -2.7860  0.7342
 3764SOL    HW211292   3.618   1.263   0.176 -0.7767  0.7691 -1.3592
 3765SOL     OW11293   3.190   3.852   0.316 -0.3112  0.4691 -0.2472
 3765SOL    HW111294   3.119   3.801   0.277 -1.0392  1.0346  0.3286
 3765SOL    HW211295   3.190   3.934   0.268 -1.0206  1.0535  0.7145
 3766SOL     OW11296   3.213   4.408   1.040 -0.0053  1.1831 -0.4420
 3766SOL    HW111297   3.208   4.403   0.944  0.0616  0.8896 -0.4340
 3766SOL    HW211298   3.278   4.476   1.057 -0.2422  1.4463 -0.6028
 3767SOL     OW11299   2.368   3.847   5.100 -0.3640  0.0066  0.2370
 3767SOL    HW111300   2.330   3.799   5.027  0.3633 -0.5198  0.1960
 3767SOL    HW211301   2.315   3.927   5.106 -0.4238  0.0626 -0.8673
 3768SOL     OW11302   3.525   3.754   2.850 -0.3227  0.2425 -0.0683
 3768SOL    HW111303   3.535   3.849   2.845  2.2796  0.0841  0.4298
 3768SOL    HW211304   3.562   3.731   2.936  0.3812 -1.3134 -0.7514
 3769SOL     OW11305   0.864   4.324   2.630  0.0987  0.2541  0.1870
 3769SOL    HW111306   0.935   4.271   2.593 -1.0084 -1.0458 -0.1919
 3769SOL    HW211307   0.835   4.379   2.557 -0.0955 -0.1335 -0.0369
 3770SOL     OW11308   3.410   0.574   0.234  0.0879 -0.3700 -0.1826
 3770SOL    HW111309   3.459   0.514   0.178 -2.3658 -1.9884 -0.7462
 3770SOL    HW211310   3.382   0.521   0.308 -1.5113  0.2192 -0.3214
 3771SOL     OW11311   1.579   4.327   3.754 -0.1166 -0.8866 -0.1645
 3771SOL    HW111312   1.642   4.342   3.684  1.5075 -0.8583  1.2528
 3771SOL    HW211313   1.629   4.282   3.822 -1.0164  1.1542  1.9599
 3772SOL     OW11314   0.220   4.275   1.230 -0.5344  0.2451  0.1325
 3772SOL    HW111315   0.225   4.313   1.142 -1.8042  1.5133  0.5739
 3772SOL    HW211316   0.179   4.343   1.283 -1.3801 -1.1353  1.3205
 3773SOL     OW11317   1.478   0.019   5.252 -0.1501  0.0460  0.2074
 3773SOL    HW111318   1.391   0.050   5.227  0.0515  0.1973 -0.3164
 3773SOL    HW211319   1.470  -0.001   5.346 -0.0269  2.6297  0.8586
 3774SOL     OW11320   2.807   5.279   2.120 -0.5620 -0.0199  0.6490
 3774SOL    HW111321   2.733   5.334   2.147  0.0094  1.0416  0.0832
 3774SOL    HW211322   2.766   5.195   2.096 -1.6352  0.6664 -0.0110
 3775SOL     OW11323   1.474   5.939   2.259 -0.6034 -0.1845 -0.0870
 3775SOL    HW111324   1.490   5.908   2.348 -2.4092  1.5720  0.9273
 3775SOL    HW211325   1.529   6.016   2.250 -1.1131  0.1772 -0.1425
 3776SOL     OW11326   1.955   2.831   3.850  0.3771  1.0722  0.4571
 3776SOL    HW111327   1.930   2.921   3.832  1.0313  1.0910 -0.4635
 3776SOL    HW211328   1.921   2.781   3.776  1.0562  0.7658  0.3370
 3777SOL     OW11329   3.602   4.336   1.331  0.0341 -0.2691  0.2228
 3777SOL    HW111330   3.557   4.274   1.273  0.2961 -0.0050 -0.2684
 3777SOL    HW211331   3.569   4.315   1.418  0.0335 -1.0249  0.0450
 3778SOL     OW11332   3.567   4.436   4.519  0.0696  0.1922 -0.6633
 3778SOL    HW111333   3.631   4.471   4.457  0.3634 -0.7647 -0.9071
 3778SOL    HW211334   3.517   4.513   4.547  1.8615  1.1088  0.1900
 3779SOL     OW11335   4.143   4.270   4.156 -0.0850  0.4997 -0.4561
 3779SOL    HW111336   4.197   4.289   4.232 -0.2919  0.0872 -0.1971
 3779SOL    HW211337   4.188   4.312   4.083  1.2517 -0.8317 -0.4548
 3780SOL     OW11338   2.666   5.745   4.678  0.5861  1.0656 -0.0970
 3780SOL    HW111339   2.660   5.682   4.749  1.6446 -1.8458 -2.3787
 3780SOL    HW211340   2.583   5.738   4.631  0.2566  2.2782  0.2565
 3781SOL     OW11341   3.950   3.311   1.041 -0.6528  0.0307 -0.1217
 3781SOL    HW111342   3.949   3.217   1.026 -0.3868  0.1073 -0.6952
 3781SOL    HW211343   3.957   3.349   0.953 -0.1586  0.5663  0.1358
 3782SOL     OW11344   1.878   5.096   1.306  0.2175 -0.1730 -0.2617
 3782SOL    HW111345   1.888   5.093   1.211 -0.2740  0.1073 -0.3245
 3782SOL    HW211346   1.901   5.186   1.330 -0.3913 -0.0215 -0.2110
 3783SOL     OW11347   0.113   4.612   3.076  0.2976 -0.4033 -0.0785
 3783SOL    HW111348   0.155   4.543   3.126  0.4273 -0.2548  0.0174
 3783SOL    HW211349   0.181   4.678   3.062 -0.4133  0.8503  1.9227
 3784SOL     OW11350   0.067   4.157   4.353 -0.3504  0.1913 -0.4067
 3784SOL    HW111351   0.070   4.245   4.316  2.1777  0.6095  0.5801
 3784SOL    HW211352  -0.002   4.160   4.418 -1.9161  0.6957 -2.0153
 3785SOL     OW11353   3.337   4.661   5.957  0.2819 -0.2233 -0.3742
 3785SOL    HW111354   3.418   4.642   6.005  0.2638  1.7975  0.5429
 3785SOL    HW211355   3.277   4.592   5.985  1.1402 -0.7082  0.3436
 3786SOL     OW11356   0.690   5.503   0.743  0.7210 -0.4207 -0.6074
 3786SOL    HW111357   0.745   5.536   0.672  2.0107 -3.0023 -0.9267
 3786SOL    HW211358   0.611   5.471   0.700  1.1307 -1.1973 -0.7979
 3787SOL     OW11359   1.800   2.700   2.668  0.1078 -0.2000  0.0863
 3787SOL    HW111360   1.717   2.743   2.645  0.7354  0.8115 -0.3462
 3787SOL    HW211361   1.828   2.744   2.749  1.6048  1.4822 -1.2610
 3788SOL     OW11362   1.047   0.633   5.633  0.4935  0.1868  0.4922
 3788SOL    HW111363   1.093   0.572   5.690 -0.4889  0.0107  1.1247
 3788SOL    HW211364   0.962   0.646   5.675 -1.2507 -1.7810 -2.0663
 3789SOL     OW11365   3.139   4.887   1.721  1.0733 -0.1268 -0.1526
 3789SOL    HW111366   3.195   4.810   1.713  0.4611 -0.4134 -2.2452
 3789SOL    HW211367   3.051   4.852   1.738  1.0610  0.2105  0.5505
 3790SOL     OW11368   0.241   3.775   4.113 -0.1079  0.0623 -0.4347
 3790SOL    HW111369   0.232   3.871   4.111 -0.3872  0.0309 -0.7679
 3790SOL    HW211370   0.246   3.750   4.020 -0.8432 -0.3246 -0.3773
 3791SOL     OW11371   1.223   2.886   4.490 -0.4012 -0.2379 -0.2399
 3791SOL    HW111372   1.270   2.805   4.469 -2.3650 -1.6618  0.5253
 3791SOL    HW211373   1.160   2.861   4.557 -0.5173  2.1490  0.6505
 3792SOL     OW11374   5.006   4.391   2.317  0.0993  0.1860  0.0212
 3792SOL    HW111375   4.984   4.381   2.224 -0.2390  0.5090  0.0666
 3792SOL    HW211376   4.922   4.402   2.361  0.2663  0.1367  0.3549
 3793SOL     OW11377   2.387   5.417   4.094  0.0136  0.0990 -0.4412
 3793SOL    HW111378   2.420   5.425   4.184  1.6244  0.9104 -1.0685
 3793SOL    HW211379   2.414   5.329   4.066 -2.5689 -1.1420  0.6029
 3794SOL     OW11380   4.390   4.873   5.254 -0.2917  0.7621 -0.3401
 3794SOL    HW111381   4.385   4.948   5.314  0.4190 -0.2647  1.0453
 3794SOL    HW211382   4.304   4.831   5.261  0.2469 -0.1474  1.0471
 3795SOL     OW11383   0.816   4.189   2.239  0.1483 -0.4691 -0.0513
 3795SOL    HW111384   0.904   4.220   2.257  0.4250 -1.2978  0.0455
 3795SOL    HW211385   0.826   4.127   2.166 -0.0392 -2.1384  1.2784
 3796SOL     OW11386   3.631   0.917   2.458  0.0904  0.3413  0.0129
 3796SOL    HW111387   3.665   1.002   2.430  0.9847  0.3981  1.2014
 3796SOL    HW211388   3.549   0.938   2.504 -0.6357  0.3741 -1.2570
 3797SOL     OW11389   3.038   3.529   2.507  0.0537 -0.1897  0.1979
 3797SOL    HW111390   3.041   3.493   2.418 -0.5518  0.7000 -0.2002
 3797SOL    HW211391   3.129   3.539   2.533  0.2534  0.7574 -0.8354
 3798SOL     OW11392   4.323   2.567   2.387 -0.0158 -0.1779  0.9909
 3798SOL    HW111393   4.413   2.534   2.380  0.1398  0.3602  0.3143
 3798SOL    HW211394   4.328   2.657   2.356 -1.2919 -1.0243 -2.1048
 3799SOL     OW11395   3.697   4.405   2.815 -0.1660 -0.0436 -0.3122
 3799SOL    HW111396   3.682   4.411   2.720 -0.7883  1.4789 -0.1599
 3799SOL    HW211397   3.732   4.318   2.829 -0.2024 -0.3470 -1.9357
 3800SOL     OW11398   1.836   2.040   3.572  0.5207  0.4441  0.1455
 3800SOL    HW111399   1.817   2.134   3.577 -0.9417  0.1506  0.5547
 3800SOL    HW211400   1.752   2.000   3.551  1.5443 -0.6110 -2.3959
 3801SOL     OW11401   3.675   2.190   1.787 -0.3362  0.3813 -0.0632
 3801SOL    HW111402   3.676   2.251   1.860  0.7414  2.6795 -1.8558
 3801SOL    HW211403   3.762   2.151   1.787 -0.7642 -0.6098  0.6100
 3802SOL     OW11404   1.279   5.846   0.822 -0.4692  0.0807 -0.3540
 3802SOL    HW111405   1.242   5.920   0.870  1.2251 -0.2763  1.6640
 3802SOL    HW211406   1.214   5.777   0.831 -1.6713  1.0104 -1.5106
 3803SOL     OW11407   5.722   5.074   0.627 -0.7858 -0.5760  0.1245
 3803SOL    HW111408   5.791   5.138   0.642 -1.0093  0.3478 -2.2712
 3803SOL    HW211409   5.755   4.993   0.666  1.2249  0.0715 -0.1266
 3804SOL     OW11410   5.184   5.839   2.996 -0.5965 -0.2386 -0.8300
 3804SOL    HW111411   5.151   5.883   2.918 -2.4829  0.2298  0.1597
 3804SOL    HW211412   5.149   5.891   3.069 -0.7096 -1.8857  0.3417
 3805SOL     OW11413   3.494   4.781   2.954 -1.1038 -0.1291  0.1413
 3805SOL    HW111414   3.427   4.839   2.989 -1.0390  1.4268 -2.1099
 3805SOL    HW211415   3.574   4.805   3.000 -1.7015 -0.8066  1.6023
 3806SOL     OW11416   3.779   3.726   3.762  0.1189  0.1151  0.3505
 3806SOL    HW111417   3.732   3.650   3.798 -0.9113  0.1776 -0.7995
 3806SOL    HW211418   3.861   3.728   3.811 -0.7236 -0.4786  1.8872
 3807SOL     OW11419   2.706   2.849   5.377 -0.1984  0.2743 -0.2649
 3807SOL    HW111420   2.619   2.886   5.394 -0.1790 -0.0684  0.5868
 3807SOL    HW211421   2.767   2.913   5.414 -0.0216  1.0354 -1.7757
 3808SOL     OW11422   5.249   5.308   2.989 -0.2750  0.4326 -0.1130
 3808SOL    HW111423   5.238   5.395   2.949 -0.9939 -1.0821 -3.5964
 3808SOL    HW211424   5.344   5.297   2.993 -0.1339  0.4441 -2.1575
 3809SOL     OW11425   3.080   4.583   1.931  0.1496  0.1150  0.0964
 3809SOL    HW111426   3.033   4.595   1.848  0.9964  0.6822 -0.3168
 3809SOL    HW211427   3.090   4.671   1.966 -0.7705 -0.1763  1.1495
 3810SOL     OW11428   0.125   5.095   3.984  0.3363 -0.4327 -0.2925
 3810SOL    HW111429   0.138   5.081   3.890 -1.0924 -2.1449 -0.2938
 3810SOL    HW211430   0.087   5.013   4.015  1.3325 -0.1121  1.9222
 3811SOL     OW11431   3.563   4.199   0.685  0.2494 -0.4681 -0.0081
 3811SOL    HW111432   3.516   4.177   0.604  0.2250 -0.9508  0.1330
 3811SOL    HW211433   3.596   4.288   0.670 -0.4080 -0.2508 -0.2513
 3812SOL     OW11434   1.309   4.178   1.198  0.0751 -0.2753  0.4449
 3812SOL    HW111435   1.216   4.155   1.195  0.0684 -0.5957  2.2154
 3812SOL    HW211436   1.311   4.272   1.184 -0.2826 -0.5678 -2.0239
 3813SOL     OW11437   0.302   0.409   2.208  0.6121  0.5670 -0.1647
 3813SOL    HW111438   0.363   0.404   2.134  0.7755  1.0638 -0.0652
 3813SOL    HW211439   0.303   0.320   2.245 -0.5065 -0.0690 -1.5595
 3814SOL     OW11440   0.757   5.715   3.189 -0.9976  0.4551 -0.2627
 3814SOL    HW111441   0.743   5.679   3.277 -0.6085  0.4262 -0.2074
 3814SOL    HW211442   0.753   5.639   3.131  0.3222  0.2211 -0.0923
 3815SOL     OW11443   3.214   4.021   3.161  0.3073 -0.4919 -0.1024
 3815SOL    HW111444   3.302   4.024   3.198 -0.0825 -0.2009  0.8149
 3815SOL    HW211445   3.162   4.077   3.218 -0.3104 -0.0269 -1.0991
 3816SOL     OW11446   1.701   2.592   1.171  0.4127 -0.5331 -0.5420
 3816SOL    HW111447   1.790   2.608   1.200  0.4330 -1.1791 -0.2383
 3816SOL    HW211448   1.646   2.622   1.244  0.2993  1.0916 -1.2330
 3817SOL     OW11449   1.786   2.698   3.420  0.8365  0.1039  0.5543
 3817SOL    HW111450   1.872   2.666   3.448  1.3409  0.2380 -0.7856
 3817SOL    HW211451   1.730   2.621   3.421  1.1101 -0.0909  0.9102
 3818SOL     OW11452   4.244   0.482   0.387  0.1487 -0.1050  0.3855
 3818SOL    HW111453   4.232   0.573   0.413  1.0123 -0.2388  1.3533
 3818SOL    HW211454   4.164   0.458   0.341 -0.1596  1.0831  0.2910
 3819SOL     OW11455   6.015   3.648   2.278 -0.6015 -0.4599  0.1013
 3819SOL    HW111456   5.935   3.597   2.284 -1.4157  0.6634 -0.8390
 3819SOL    HW211457   5.990   3.737   2.303  0.4821 -0.2082  0.3697
 3820SOL     OW11458   2.523   3.956   4.839  0.0992  0.1994 -0.1954
 3820SOL    HW111459   2.533   3.863   4.860 -1.6199  0.4259  2.0235
 3820SOL    HW211460   2.606   3.995   4.863  1.8786 -1.0285 -3.6519
 3821SOL     OW11461   4.198   1.908   2.168 -0.4340 -0.2744  0.5146
 3821SOL    HW111462   4.213   1.823   2.209 -0.4126 -0.3400  0.3742
 3821SOL    HW211463   4.135   1.952   2.225 -0.9138 -0.6260  0.2646
 3822SOL     OW11464   1.703   5.019   0.019  0.2509  0.0146  0.1200
 3822SOL    HW111465   1.772   5.046   0.079 -0.2192 -1.2816  1.2860
 3822SOL    HW211466   1.747   4.966  -0.048  0.5572  0.2178  0.1624
 3823SOL     OW11467   2.359   3.778   3.804 -0.0514 -0.0327 -0.7557
 3823SOL    HW111468   2.307   3.858   3.798  0.1618  0.1083 -0.7219
 3823SOL    HW211469   2.302   3.716   3.849 -0.1324  0.1706 -0.5746
 3824SOL     OW11470   2.296   5.204   3.432 -0.0309  0.2160 -0.4751
 3824SOL    HW111471   2.372   5.147   3.431 -0.3200 -0.1901  0.1974
 3824SOL    HW211472   2.263   5.200   3.522 -0.2669  1.1599 -0.5003
 3825SOL     OW11473   4.551   0.993   5.808 -0.5237 -0.1652  0.5849
 3825SOL    HW111474   4.516   1.059   5.747  1.1751 -0.8355 -1.2134
 3825SOL    HW211475   4.542   1.034   5.894 -2.3181  1.1376 -0.1445
 3826SOL     OW11476   0.557   3.924   3.500 -0.7820  0.2080  0.1160
 3826SOL    HW111477   0.604   3.921   3.584  1.1840 -1.1202 -0.9445
 3826SOL    HW211478   0.554   4.017   3.478 -0.5927  0.5019  1.2742
 3827SOL     OW11479   0.274   3.096   3.090  0.3403 -0.1214 -0.4743
 3827SOL    HW111480   0.187   3.102   3.130  0.4196 -2.8761  0.3368
 3827SOL    HW211481   0.265   3.140   3.006 -2.1616 -1.1841 -0.8584
 3828SOL     OW11482   2.368   3.026   4.788  0.3886  0.1802 -0.3274
 3828SOL    HW111483   2.325   3.107   4.761 -0.5734  0.2299  1.2519
 3828SOL    HW211484   2.450   3.054   4.829 -0.2388  0.4058  0.7840
 3829SOL     OW11485   2.597   1.231   3.035 -0.4314  0.2334  0.5768
 3829SOL    HW111486   2.683   1.232   2.993 -0.4905  0.7893  0.4561
 3829SOL    HW211487   2.539   1.193   2.970 -0.8473  2.6017 -0.5502
 3830SOL     OW11488   4.363   3.716   2.632 -0.1442 -0.7607 -0.5355
 3830SOL    HW111489   4.392   3.772   2.704 -0.2459 -0.3019 -0.8488
 3830SOL    HW211490   4.286   3.671   2.666  0.7066 -1.7259  0.1848
 3831SOL     OW11491   1.316   2.912   3.543 -0.2382 -0.4596 -0.2951
 3831SOL    HW111492   1.325   2.885   3.634 -1.6738 -0.1577 -0.0397
 3831SOL    HW211493   1.264   2.843   3.502  0.1044 -0.4218 -0.8036
 3832SOL     OW11494   2.003   2.672   4.542  0.6453 -0.1205 -0.7108
 3832SOL    HW111495   1.912   2.694   4.524  0.6746 -0.7314 -1.6827
 3832SOL    HW211496   2.051   2.754   4.528  0.4354 -0.1642 -1.7495
 3833SOL     OW11497   1.008   0.479   4.082  0.2107  0.3100 -0.8398
 3833SOL    HW111498   0.975   0.516   4.000  1.5012 -0.9649 -2.0216
 3833SOL    HW211499   1.087   0.530   4.101  0.3997  0.0543 -0.9124
 3834SOL     OW11500   1.049   4.005   2.806  0.0245 -0.0638  0.0265
 3834SOL    HW111501   1.024   3.946   2.734 -0.2009  1.2022 -0.9638
 3834SOL    HW211502   1.112   4.065   2.767  0.4038  0.2379  1.0785
 3835SOL     OW11503   3.257   4.829   2.612 -0.0565 -0.1125  0.3972
 3835SOL    HW111504   3.198   4.868   2.547 -0.8024 -1.8280 -0.0003
 3835SOL    HW211505   3.344   4.846   2.577 -0.4302 -0.5429 -0.8092
 3836SOL     OW11506   2.864   3.893   3.546  0.3284  0.2118  0.5306
 3836SOL    HW111507   2.796   3.904   3.479  0.1307  0.0391  0.7022
 3836SOL    HW211508   2.900   3.806   3.529 -1.3643 -0.8769  2.1283
 3837SOL     OW11509   4.947   3.757   0.798 -0.3777  0.0285 -0.2259
 3837SOL    HW111510   5.010   3.747   0.727 -0.0707 -1.4421  0.2266
 3837SOL    HW211511   4.943   3.852   0.814  1.5849  0.1653 -0.3793
 3838SOL     OW11512   3.991   3.269   2.209 -0.1562 -0.7626 -0.3831
 3838SOL    HW111513   3.922   3.335   2.211  1.0769  0.5835 -0.0508
 3838SOL    HW211514   4.016   3.262   2.117  1.2666  1.0203 -0.2038
 3839SOL     OW11515   1.990   0.286   1.626 -0.1073 -0.6812  0.7384
 3839SOL    HW111516   2.075   0.308   1.665  0.1007 -0.2269  0.0513
 3839SOL    HW211517   1.959   0.211   1.677  1.2108 -1.5473  0.3218
 3840SOL     OW11518   1.081   2.301   3.262 -0.2945  0.2280 -0.7185
 3840SOL    HW111519   0.988   2.284   3.279 -0.0841 -0.4262 -0.1666
 3840SOL    HW211520   1.090   2.396   3.274 -0.4440  0.0180  1.7159
 3841SOL     OW11521   2.527   4.099   3.937  0.2399  0.8032 -0.3829
 3841SOL    HW111522   2.493   4.017   3.972 -0.7800  2.0778  1.7641
 3841SOL    HW211523   2.606   4.116   3.988  1.4614  0.3177 -2.0308
 3842SOL     OW11524   1.671   5.022   2.695 -0.0429 -0.2453  0.3982
 3842SOL    HW111525   1.684   4.929   2.677 -0.1630 -0.0557 -0.7342
 3842SOL    HW211526   1.679   5.029   2.790 -0.2730 -1.4448  0.5232
 3843SOL     OW11527   5.688   4.386   5.217 -0.0673 -0.4156  0.0045
 3843SOL    HW111528   5.696   4.464   5.273 -0.3518 -0.9985  0.8658
 3843SOL    HW211529   5.635   4.416   5.143 -0.0502  0.2543  0.2513
 3844SOL     OW11530   4.608   5.390   3.831  0.0523  0.4819 -0.0072
 3844SOL    HW111531   4.635   5.317   3.774  1.9768 -0.6186  2.1185
 3844SOL    HW211532   4.515   5.400   3.815  0.1920 -0.8869 -2.0879
 3845SOL     OW11533   2.119   0.340   4.251  0.0683 -0.2521  0.7238
 3845SOL    HW111534   2.069   0.386   4.183  0.2319  0.0840  0.8326
 3845SOL    HW211535   2.159   0.410   4.302  0.3486 -0.5193  0.8647
 3846SOL     OW11536   3.048   3.410   0.605 -0.0146  0.2299  0.1571
 3846SOL    HW111537   3.087   3.382   0.523  0.8966  0.0084  0.6464
 3846SOL    HW211538   3.105   3.480   0.637  0.6039 -0.7706  1.3719
 3847SOL     OW11539   3.048   4.320   2.456 -0.0483 -0.6406 -0.3120
 3847SOL    HW111540   3.097   4.243   2.484 -0.1940 -0.2919  0.9971
 3847SOL    HW211541   3.001   4.348   2.535 -0.7878  0.1953 -1.0260
 3848SOL     OW11542   1.090   4.287   1.839 -0.6018 -0.3495 -0.1516
 3848SOL    HW111543   1.035   4.342   1.895 -1.8188  0.0520 -1.6834
 3848SOL    HW211544   1.154   4.248   1.899 -3.2995 -1.8451  1.9260
 3849SOL     OW11545   2.983   2.241   2.344  0.4523  0.7713 -0.1956
 3849SOL    HW111546   2.895   2.231   2.380  0.9660  0.8013  1.1036
 3849SOL    HW211547   3.042   2.221   2.417  1.5431 -0.6983 -1.4013
 3850SOL     OW11548   0.519   3.615   3.480  0.5231 -0.4432 -0.3144
 3850SOL    HW111549   0.525   3.709   3.492  3.5925 -0.7109  0.9799
 3850SOL    HW211550   0.443   3.589   3.532  1.4215  0.9839  1.8311
 3851SOL     OW11551   2.740   5.664   0.472 -0.2757 -0.4101 -0.2152
 3851SOL    HW111552   2.753   5.597   0.405  0.3631 -0.4918 -0.0164
 3851SOL    HW211553   2.650   5.651   0.502 -0.7003 -0.1015 -1.3372
 3852SOL     OW11554   1.025   3.555   1.716  0.2939  0.1796 -0.0247
 3852SOL    HW111555   0.948   3.514   1.677 -0.0652  1.3866 -0.6509
 3852SOL    HW211556   0.999   3.646   1.731  0.7157  0.0006  2.2465
 3853SOL     OW11557   1.812   4.567   3.349  0.0946 -0.4401  0.7166
 3853SOL    HW111558   1.865   4.592   3.425  0.9292  0.2257 -0.0536
 3853SOL    HW211559   1.875   4.561   3.277 -0.3709 -2.9982  0.4402
 3854SOL     OW11560   1.618   1.908   3.518 -0.1810  0.4944  0.2863
 3854SOL    HW111561   1.523   1.902   3.519 -0.2977  0.5023 -2.5497
 3854SOL    HW211562   1.647   1.819   3.538 -0.7968  0.3968  0.7620
 3855SOL     OW11563   3.866   3.997   3.974 -0.6109  0.2416  0.2499
 3855SOL    HW111564   3.871   4.083   4.015 -0.5596 -0.5002  1.8687
 3855SOL    HW211565   3.773   3.987   3.952 -1.3587 -0.6656  3.3132
 3856SOL     OW11566   1.728   3.298   2.020  0.1090 -0.2877  0.2493
 3856SOL    HW111567   1.715   3.355   2.095  0.3579 -1.3182  1.0882
 3856SOL    HW211568   1.646   3.249   2.011  0.7140 -1.4802  0.9994
 3857SOL     OW11569   2.481   0.423   2.245 -0.1011  0.3030  0.7429
 3857SOL    HW111570   2.458   0.330   2.238 -1.7807  0.7206  0.1851
 3857SOL    HW211571   2.499   0.450   2.155 -0.6037  0.7398  0.7695
 3858SOL     OW11572   0.777   2.996   2.953  0.3061  0.1029  0.0764
 3858SOL    HW111573   0.728   2.974   3.032 -0.2826 -2.3484 -0.8760
 3858SOL    HW211574   0.715   2.982   2.882  2.1395 -2.6307 -1.1447
 3859SOL     OW11575   3.099   3.708   3.202 -0.0274 -0.8025  0.2922
 3859SOL    HW111576   3.120   3.798   3.177  1.0560 -1.7223 -2.4769
 3859SOL    HW211577   3.035   3.679   3.137  1.8161 -2.9143 -0.7047
 3860SOL     OW11578   2.852   5.530   2.588  0.4115 -0.4392  0.1321
 3860SOL    HW111579   2.759   5.546   2.573  0.5883 -0.8946 -1.7861
 3860SOL    HW211580   2.876   5.589   2.659 -0.7583  1.6878 -1.1274
 3861SOL     OW11581   2.481   5.465   1.415  0.1873  0.1073 -0.4842
 3861SOL    HW111582   2.556   5.480   1.473 -0.4663 -0.1209  0.4410
 3861SOL    HW211583   2.485   5.537   1.352  0.4392  0.8406  0.3469
 3862SOL     OW11584   2.710   4.812   4.149 -0.0352 -0.6078  0.4308
 3862SOL    HW111585   2.648   4.769   4.091 -0.9737 -1.3807  1.9371
 3862SOL    HW211586   2.663   4.820   4.233  1.5993 -0.4539  1.3731
 3863SOL     OW11587   0.513   5.598   3.411  0.3907  0.5333  0.3672
 3863SOL    HW111588   0.497   5.573   3.320  2.5582  0.4265 -0.0415
 3863SOL    HW211589   0.443   5.555   3.461 -0.0578 -0.5040 -1.0892
 3864SOL     OW11590   1.453   5.261   0.397  0.0956  0.7184  0.4015
 3864SOL    HW111591   1.498   5.250   0.314 -0.0807 -0.7429  0.4766
 3864SOL    HW211592   1.456   5.356   0.414 -0.8615  1.2093 -1.8157
 3865SOL     OW11593   2.587   2.958   1.907  0.0577 -0.0962 -0.2376
 3865SOL    HW111594   2.595   2.998   1.821  2.0731  0.3078  0.0918
 3865SOL    HW211595   2.676   2.932   1.930 -0.9738 -3.8948  0.0474
 3866SOL     OW11596   5.089   5.138   3.938  0.1757 -0.3393 -0.3171
 3866SOL    HW111597   5.088   5.064   3.998 -1.5910 -0.8431 -0.8942
 3866SOL    HW211598   5.032   5.203   3.979  2.0386  0.9260  0.3882
 3867SOL     OW11599   5.428   5.048   1.216 -0.2602 -0.6861 -0.0005
 3867SOL    HW111600   5.473   5.003   1.288 -1.1036  0.7324  1.4903
 3867SOL    HW211601   5.353   5.091   1.258 -0.4346  0.7117 -1.6232
 3868SOL     OW11602   2.029   5.537   3.023 -0.2616 -0.5583 -0.7501
 3868SOL    HW111603   1.966   5.474   2.990 -0.1887 -0.2634 -1.4586
 3868SOL    HW211604   1.997   5.559   3.111 -0.6161 -1.1190 -0.7349
 3869SOL     OW11605   5.215   5.885   1.248  0.5602 -0.1372  0.0392
 3869SOL    HW111606   5.277   5.877   1.321  1.8166  1.1690 -0.8283
 3869SOL    HW211607   5.180   5.974   1.256 -1.0473 -0.7807  0.3726
 3870SOL     OW11608   1.202   4.969   4.137  0.2045 -0.3986  0.0739
 3870SOL    HW111609   1.271   5.029   4.107  0.1262 -0.4004 -0.1064
 3870SOL    HW211610   1.163   5.014   4.212  1.2970 -0.9885  1.0332
 3871SOL     OW11611   3.349   2.033   1.903  0.3828 -0.3295 -0.2851
 3871SOL    HW111612   3.320   2.099   1.839 -1.7741 -0.9125  0.0084
 3871SOL    HW211613   3.390   2.084   1.973  1.0462  0.4713 -1.2237
 3872SOL     OW11614   2.505   4.070   2.891  0.7226  0.3135  0.5201
 3872SOL    HW111615   2.469   4.065   2.802 -0.0397 -0.1426  0.8448
 3872SOL    HW211616   2.556   4.151   2.891  3.1496 -1.0516 -1.1916
 3873SOL     OW11617   3.535   5.360   4.233 -0.7641  0.0334  0.0646
 3873SOL    HW111618   3.446   5.347   4.201 -0.3813  0.6839 -1.3538
 3873SOL    HW211619   3.586   5.380   4.155  0.4224  0.7466  0.9762
 3874SOL     OW11620   3.856   1.512   2.700  0.1823  0.2048 -0.0536
 3874SOL    HW111621   3.857   1.589   2.644  4.0397 -0.9555 -1.8964
 3874SOL    HW211622   3.915   1.533   2.773  0.6946 -0.7000 -0.1839
 3875SOL     OW11623   2.216   0.189   2.032 -0.5441  0.1318  0.2413
 3875SOL    HW111624   2.142   0.156   1.982 -1.5437  1.2954  0.8906
 3875SOL    HW211625   2.258   0.111   2.068 -1.3247 -0.5580 -0.3117
 3876SOL     OW11626   1.890   1.980   3.260  0.3158 -0.2999  0.2514
 3876SOL    HW111627   1.827   2.024   3.317 -0.1995  1.8846 -1.8196
 3876SOL    HW211628   1.860   2.001   3.171  1.1883 -3.3620 -0.8919
 3877SOL     OW11629   3.502   5.376   3.055 -0.2178 -0.3037  0.1381
 3877SOL    HW111630   3.533   5.303   3.109  0.5505  1.4988  2.3078
 3877SOL    HW211631   3.443   5.336   2.992  0.8701 -2.9016  0.6420
 3878SOL     OW11632   1.956   2.806   2.865  0.0480  0.3027 -0.2151
 3878SOL    HW111633   1.970   2.899   2.886  0.2086  0.1775  0.2507
 3878SOL    HW211634   2.028   2.761   2.909 -0.0258 -0.0452 -0.4471
 3879SOL     OW11635   4.071   5.678   2.969 -0.0672 -0.3652 -0.2530
 3879SOL    HW111636   4.152   5.726   2.955  0.1876 -0.2830  1.2945
 3879SOL    HW211637   4.003   5.735   2.932  0.3084  0.8758  0.8949
 3880SOL     OW11638   5.484   4.721   5.947 -0.3932 -0.4956 -0.2660
 3880SOL    HW111639   5.429   4.658   5.994 -2.6863  0.0881 -1.9823
 3880SOL    HW211640   5.560   4.671   5.918 -1.0645 -1.9032  0.3400
 3881SOL     OW11641   4.569   5.350   2.947 -0.0402 -0.3189 -0.2188
 3881SOL    HW111642   4.496   5.289   2.932 -0.2145  0.2554 -1.8699
 3881SOL    HW211643   4.542   5.400   3.024 -1.1666 -0.4509 -0.5068
 3882SOL     OW11644   2.467   2.082   3.995 -0.0256 -1.0374 -0.0674
 3882SOL    HW111645   2.423   1.998   4.005 -0.2629 -1.2058 -1.9793
 3882SOL    HW211646   2.421   2.124   3.921  0.9316  0.1926 -0.0055
 3883SOL     OW11647   2.638   3.925   0.948  0.2565  0.5030  0.2287
 3883SOL    HW111648   2.609   3.932   1.039 -0.5563 -0.1646  0.0397
 3883SOL    HW211649   2.718   3.873   0.953  2.0114  3.0658  0.8447
 3884SOL     OW11650   2.938   2.006   2.995  0.8164  0.1442 -0.1794
 3884SOL    HW111651   2.966   1.933   2.939  0.6648  0.1755 -0.2943
 3884SOL    HW211652   2.843   2.000   2.996  0.8434 -0.3835  0.7686
 3885SOL     OW11653   1.696   3.678   3.044 -0.7105  0.4226 -0.2580
 3885SOL    HW111654   1.647   3.732   2.982 -0.3548 -0.8101 -1.6665
 3885SOL    HW211655   1.787   3.683   3.014 -0.5191 -0.1193  0.2188
 3886SOL     OW11656   1.323   4.591   2.749  0.3815 -0.2267 -0.2115
 3886SOL    HW111657   1.384   4.662   2.769 -0.5370  1.0184 -1.6572
 3886SOL    HW211658   1.260   4.593   2.821 -1.0434  2.0930 -1.4163
 3887SOL     OW11659   2.945   4.551   3.883  0.1008  0.0514 -0.4779
 3887SOL    HW111660   2.988   4.470   3.855 -2.0179 -0.1541 -3.8043
 3887SOL    HW211661   2.985   4.620   3.829 -1.7232  0.2491 -1.6977
 3888SOL     OW11662   4.687   3.722   3.354 -0.2274  0.7121 -0.1555
 3888SOL    HW111663   4.723   3.656   3.294  0.7001  0.4901  0.6251
 3888SOL    HW211664   4.754   3.733   3.421 -1.6017  0.3073  1.3526
 3889SOL     OW11665   1.884   4.430   2.582 -0.0386  0.0002  0.1819
 3889SOL    HW111666   1.849   4.442   2.670  2.6249  0.7720  1.2480
 3889SOL    HW211667   1.866   4.338   2.562  0.6339 -0.6368  2.2101
 3890SOL     OW11668   4.640   0.606   2.520  0.5394  0.2144  0.2107
 3890SOL    HW111669   4.574   0.554   2.566 -0.4167 -1.0644 -2.3758
 3890SOL    HW211670   4.679   0.661   2.588 -1.4606 -0.7583  2.2945
 3891SOL     OW11671   0.764   4.693   2.617 -0.1844 -0.5693  0.5934
 3891SOL    HW111672   0.725   4.688   2.530  1.4295 -1.7009 -0.1322
 3891SOL    HW211673   0.832   4.760   2.610  0.7903 -1.5200  0.5789
 3892SOL     OW11674   3.377   4.136   2.366  1.0131 -0.4044 -0.3366
 3892SOL    HW111675   3.336   4.079   2.430  1.2611 -1.8209 -1.3829
 3892SOL    HW211676   3.342   4.107   2.281 -1.5155  3.2102 -0.7973
 3893SOL     OW11677   3.668   4.288   3.150 -0.7748  0.0469 -0.0592
 3893SOL    HW111678   3.631   4.291   3.238 -1.1280  3.1635 -0.1956
 3893SOL    HW211679   3.637   4.368   3.108  0.1333 -0.8869 -2.7333
 3894SOL     OW11680   3.907   1.318   3.267 -0.7442 -0.2499  0.6352
 3894SOL    HW111681   3.933   1.227   3.282  1.9003  0.3347  0.1801
 3894SOL    HW211682   3.910   1.328   3.172 -0.7648  0.3741  0.6997
 3895SOL     OW11683   2.589   5.617   2.544  0.1646 -0.2639 -0.0190
 3895SOL    HW111684   2.561   5.530   2.571 -1.9199  0.4321  0.2247
 3895SOL    HW211685   2.525   5.644   2.479 -0.1636  1.6796  1.0330
 3896SOL     OW11686   4.837   5.765   5.766 -0.2458  0.1430 -0.2871
 3896SOL    HW111687   4.861   5.703   5.697  1.9568 -2.0765  2.2429
 3896SOL    HW211688   4.768   5.721   5.816  2.0154 -0.9245  2.1283
 3897SOL     OW11689   2.173   3.622   3.959 -0.3600 -0.2569  0.1775
 3897SOL    HW111690   2.122   3.542   3.960  1.1052 -1.2403  0.1676
 3897SOL    HW211691   2.172   3.652   4.049 -1.2709 -0.0349  0.1017
 3898SOL     OW11692   2.134   2.561   2.912 -0.6827 -0.3366  0.4234
 3898SOL    HW111693   2.218   2.606   2.910 -0.8935  0.0475 -0.6570
 3898SOL    HW211694   2.109   2.560   3.004  0.4123 -0.3027  0.7353
 3899SOL     OW11695   5.568   4.616   2.377  0.3133  0.7876 -0.3195
 3899SOL    HW111696   5.530   4.678   2.440  1.2371  2.0457 -0.9341
 3899SOL    HW211697   5.622   4.671   2.320  1.3175 -0.6328 -0.7916
 3900SOL     OW11698   3.669   3.916   3.061 -0.1726 -0.4173 -0.3547
 3900SOL    HW111699   3.763   3.901   3.075 -0.1418  0.9484  1.2659
 3900SOL    HW211700   3.666   3.984   2.994  0.1351  1.3616  1.3590
 3901SOL     OW11701   2.121   1.460   3.521  0.2533 -0.1579  0.0062
 3901SOL    HW111702   2.072   1.391   3.566 -2.5827  0.9040 -1.2499
 3901SOL    HW211703   2.115   1.437   3.428  0.2630  1.1590 -0.3319
 3902SOL     OW11704   3.835   4.826   1.102  0.0990  0.4492 -0.1976
 3902SOL    HW111705   3.846   4.846   1.195 -1.8490 -1.8849  0.6301
 3902SOL    HW211706   3.878   4.742   1.090 -3.8660 -1.8948 -0.0277
 3903SOL     OW11707   2.754   0.992   4.418  0.3200 -0.2694 -0.2810
 3903SOL    HW111708   2.736   1.054   4.347  1.8401  0.6536  0.1076
 3903SOL    HW211709   2.682   1.006   4.480 -0.7678 -0.7557 -1.3782
 3904SOL     OW11710   2.360   4.863   2.707  0.1091 -0.3684 -0.2452
 3904SOL    HW111711   2.366   4.920   2.783  2.0962 -1.1822  0.2611
 3904SOL    HW211712   2.333   4.778   2.742  0.0927 -0.5084 -0.5869
 3905SOL     OW11713   2.587   4.056   4.340 -0.3434  0.2365  0.6282
 3905SOL    HW111714   2.627   4.142   4.331  1.1012 -0.6141 -2.7309
 3905SOL    HW211715   2.495   4.070   4.318  0.2861  0.7359 -2.1750
 3906SOL     OW11716   3.055   1.607   3.830  0.0246  0.5462 -0.0280
 3906SOL    HW111717   3.050   1.549   3.754  0.6546  2.9515 -2.0551
 3906SOL    HW211718   3.019   1.556   3.902  0.4138 -2.2609 -1.6812
 3907SOL     OW11719   1.787   3.937   3.252  0.1378  0.0179  0.0310
 3907SOL    HW111720   1.838   3.871   3.299 -0.3500 -0.8199 -0.5849
 3907SOL    HW211721   1.852   3.982   3.198  0.7111  1.0136  1.4785
 3908SOL     OW11722   5.925   2.889   1.918  0.3852  0.1356  0.1564
 3908SOL    HW111723   5.881   2.854   1.841 -1.6971  0.4730  1.1402
 3908SOL    HW211724   5.920   2.818   1.983  0.9433  0.3307  0.4217
 3909SOL     OW11725   5.800   5.356   2.222  0.0821  0.1309  0.2374
 3909SOL    HW111726   5.824   5.335   2.132 -1.1525 -1.4760  0.2370
 3909SOL    HW211727   5.856   5.430   2.245  1.4973 -0.3827 -1.3272
 3910SOL     OW11728   3.277   5.751   3.092 -0.1363 -0.4861  0.3416
 3910SOL    HW111729   3.284   5.806   3.170 -1.6599  1.1472 -0.5999
 3910SOL    HW211730   3.200   5.696   3.108 -0.0377 -0.6438  0.2755
 3911SOL     OW11731   2.543   4.463   5.522  0.2092 -0.4263 -0.1236
 3911SOL    HW111732   2.537   4.476   5.616 -0.6932  0.1953 -0.2568
 3911SOL    HW211733   2.614   4.521   5.494  0.4837 -0.6173  0.1608
 3912SOL     OW11734   1.204   5.903   2.261 -0.1831 -0.3733  0.5230
 3912SOL    HW111735   1.298   5.886   2.262  0.0284  0.5008 -1.0685
 3912SOL    HW211736   1.165   5.819   2.237  0.3349 -0.3790 -0.3704
 3913SOL     OW11737   3.226   4.414   3.575 -0.5116 -0.6535 -0.0962
 3913SOL    HW111738   3.287   4.423   3.648  0.3887 -0.3514 -0.8657
 3913SOL    HW211739   3.278   4.375   3.505 -1.7933 -2.5476 -0.0568
 3914SOL     OW11740   0.570   0.221   3.846  0.4366  0.3026 -0.0590
 3914SOL    HW111741   0.526   0.289   3.795 -0.2890 -0.6456 -0.7202
 3914SOL    HW211742   0.514   0.210   3.923  1.0660  1.1123  0.5332
 3915SOL     OW11743   4.250   0.800   4.806 -0.3368 -0.5082 -0.2643
 3915SOL    HW111744   4.242   0.764   4.718 -0.3206 -0.3719 -0.3224
 3915SOL    HW211745   4.344   0.814   4.818 -0.4484  0.7934 -0.7665
 3916SOL     OW11746   2.446   4.948   2.485  0.2377  0.2585  0.3791
 3916SOL    HW111747   2.476   5.035   2.512 -1.7965  1.2211 -0.2807
 3916SOL    HW211748   2.414   4.908   2.566 -1.8641  1.4780  0.2476
 3917SOL     OW11749   0.285   0.631   3.636  0.2130 -0.3871  0.0702
 3917SOL    HW111750   0.258   0.722   3.645 -0.0897 -0.0361 -3.3015
 3917SOL    HW211751   0.378   0.635   3.613  0.2165 -0.9369 -0.0329
 3918SOL     OW11752   3.445   1.726   4.414  0.1724  0.1182 -0.3176
 3918SOL    HW111753   3.536   1.729   4.441  0.2229 -1.7379 -0.2171
 3918SOL    HW211754   3.433   1.807   4.363  1.5136  0.9725  0.6488
 3919SOL     OW11755   3.584   3.291   2.625  0.3377 -0.2810 -0.3747
 3919SOL    HW111756   3.616   3.202   2.608  4.7177 -0.2025  4.7862
 3919SOL    HW211757   3.512   3.280   2.686 -1.0981 -0.1952 -1.9862
 3920SOL     OW11758   1.153   5.245   1.518 -0.1515  0.1996  0.3711
 3920SOL    HW111759   1.057   5.243   1.514 -0.1811  0.1094  0.9572
 3920SOL    HW211760   1.173   5.236   1.611  0.4479 -0.5298  0.1813
 3921SOL     OW11761   4.135   5.670   2.202 -0.2891  0.1104  0.1874
 3921SOL    HW111762   4.040   5.679   2.189 -0.0217  0.6373 -1.6630
 3921SOL    HW211763   4.173   5.740   2.149  1.1911 -0.7488  0.0694
 3922SOL     OW11764   5.912   4.721   2.035  0.3290 -0.5884  0.2084
 3922SOL    HW111765   5.961   4.783   1.983  0.0820 -0.1828  0.4530
 3922SOL    HW211766   5.946   4.731   2.124  0.9641 -1.4932  0.0869
 3923SOL     OW11767   5.420   4.373   1.889  0.4102 -0.5724 -0.2267
 3923SOL    HW111768   5.493   4.434   1.872  0.1466  0.2954  1.5526
 3923SOL    HW211769   5.385   4.401   1.974 -0.6295 -2.3443 -0.0400
 3924SOL     OW11770   2.072   5.137   4.138 -0.0372  0.2082 -0.0095
 3924SOL    HW111771   1.979   5.152   4.156  0.0986 -1.0107  2.0580
 3924SOL    HW211772   2.118   5.182   4.209  0.9929  1.1361 -1.2289
 3925SOL     OW11773   2.491   3.275   4.926  0.1560 -0.0107 -0.0292
 3925SOL    HW111774   2.506   3.363   4.890 -1.1346  0.1975 -0.0909
 3925SOL    HW211775   2.397   3.271   4.941  0.3329 -1.0385  0.9132
 3926SOL     OW11776   3.859   0.332   5.012 -0.4001  0.2075 -0.2547
 3926SOL    HW111777   3.943   0.346   4.969  0.0310  2.3612  1.0942
 3926SOL    HW211778   3.794   0.361   4.948  0.1370  1.7508 -0.1569
 3927SOL     OW11779   2.476   3.290   3.005  0.2175  0.2530  0.1817
 3927SOL    HW111780   2.466   3.198   2.983  1.8570  0.1495 -0.2543
 3927SOL    HW211781   2.387   3.326   3.000 -0.0132 -0.5202 -3.1964
 3928SOL     OW11782   2.524   3.637   4.419  0.2464  0.6639  0.1674
 3928SOL    HW111783   2.482   3.566   4.468 -0.5660  1.4086  0.5887
 3928SOL    HW211784   2.559   3.694   4.487  1.6628  0.2398 -0.1792
 3929SOL     OW11785   5.890   4.452   4.654 -0.1006  0.2752 -0.2619
 3929SOL    HW111786   5.926   4.370   4.690 -1.9151 -0.2819  0.3899
 3929SOL    HW211787   5.883   4.510   4.730 -0.6726  0.3291 -0.3509
 3930SOL     OW11788   1.832   3.517   5.139 -0.1440  0.0727 -0.2578
 3930SOL    HW111789   1.854   3.500   5.048  1.0986 -0.7615  0.1616
 3930SOL    HW211790   1.833   3.431   5.181  2.5466  0.6498  1.1520
 3931SOL     OW11791   0.034   5.060   0.489  0.3176  0.5456 -0.6106
 3931SOL    HW111792   0.026   5.150   0.523 -0.1492  0.9194 -1.6758
 3931SOL    HW211793   0.039   5.006   0.568 -4.2104  1.0412  0.3310
 3932SOL     OW11794   3.317   5.499   1.943  0.6497  0.4340 -0.2099
 3932SOL    HW111795   3.271   5.426   1.985  1.0062 -0.2841 -1.0398
 3932SOL    HW211796   3.331   5.470   1.853 -1.4619  2.5433 -1.3204
 3933SOL     OW11797   0.759   0.454   0.716  0.6590  0.5284 -0.2241
 3933SOL    HW111798   0.705   0.381   0.687  1.7243 -0.3116 -0.1489
 3933SOL    HW211799   0.746   0.457   0.811  0.5112  0.5231 -0.2440
 3934SOL     OW11800   4.610   5.050   4.692 -0.6502  0.1648 -0.2393
 3934SOL    HW111801   4.634   5.130   4.645 -1.5273  0.5653 -0.0266
 3934SOL    HW211802   4.661   5.052   4.773 -1.0734  0.7872  0.0149
 3935SOL     OW11803   3.716   5.374   4.031 -0.0489  0.4889  0.2401
 3935SOL    HW111804   3.764   5.434   3.974  1.4417  0.5570  1.5005
 3935SOL    HW211805   3.783   5.318   4.069 -1.4274 -2.1997 -1.0614
 3936SOL     OW11806   0.585   2.272   2.359 -0.3400  0.4658 -0.2100
 3936SOL    HW111807   0.529   2.327   2.304  0.3364 -0.1433 -1.5858
 3936SOL    HW211808   0.549   2.184   2.348  0.3213  0.2107 -0.3780
 3937SOL     OW11809   4.256   5.496   5.781 -0.4312  0.0036 -0.0189
 3937SOL    HW111810   4.247   5.586   5.814 -1.2360 -0.3245  0.7070
 3937SOL    HW211811   4.330   5.460   5.829  1.1861  0.8687 -1.7362
 3938SOL     OW11812   3.075   1.269   0.526 -0.3296 -0.3207  0.0521
 3938SOL    HW111813   3.095   1.245   0.435  4.2498  0.1402  0.6728
 3938SOL    HW211814   3.073   1.364   0.525  0.3344 -0.2953  0.4730
 3939SOL     OW11815   1.022   5.905   1.543 -0.7314 -0.3384  0.1192
 3939SOL    HW111816   1.115   5.921   1.523 -0.3478 -2.5563 -0.1378
 3939SOL    HW211817   1.018   5.906   1.639 -0.9692  2.0862  0.1644
 3940SOL     OW11818   5.520   4.800   2.595 -0.9034  0.6968  0.0310
 3940SOL    HW111819   5.510   4.812   2.689 -1.2190  2.3198 -0.1804
 3940SOL    HW211820   5.573   4.875   2.567  1.0076 -0.8728 -0.7939
 3941SOL     OW11821   4.897   3.732   2.822  0.4314  0.1262 -0.0909
 3941SOL    HW111822   4.835   3.695   2.759 -0.9663  0.9188  0.7646
 3941SOL    HW211823   4.959   3.780   2.767  0.4737 -0.9083 -0.9889
 3942SOL     OW11824   1.909   3.461   3.761  0.3744  0.6013  0.2387
 3942SOL    HW111825   1.960   3.412   3.825  0.8820  0.6699 -0.1073
 3942SOL    HW211826   1.969   3.529   3.730 -0.7872  2.4543  1.8369
 3943SOL     OW11827   3.033   5.900   1.401  0.3456 -0.0091 -0.2439
 3943SOL    HW111828   3.017   5.986   1.440  1.7991  0.4888 -0.6722
 3943SOL    HW211829   2.959   5.888   1.341  0.7584  1.5526 -1.1379
 3944SOL     OW11830   0.174   0.380   5.338  0.0503 -0.4143 -0.2160
 3944SOL    HW111831   0.184   0.470   5.307 -0.6508 -0.0135  0.6494
 3944SOL    HW211832   0.224   0.377   5.419 -0.3883 -0.6293  0.0529
 3945SOL     OW11833   0.770   0.084   3.962 -0.4354  0.3063  0.4362
 3945SOL    HW111834   0.861   0.110   3.969  0.1214 -1.5761  0.9406
 3945SOL    HW211835   0.728   0.153   3.911  1.3833  0.9404 -0.2609
 3946SOL     OW11836   1.263   1.445   5.080  0.0975 -0.1000 -0.2958
 3946SOL    HW111837   1.231   1.356   5.095 -0.1813 -0.2429 -1.6745
 3946SOL    HW211838   1.190   1.501   5.107  0.6052 -0.2185  1.4632
 3947SOL     OW11839   2.306   4.225   5.150  0.1730  0.0488 -0.4465
 3947SOL    HW111840   2.326   4.297   5.210  0.4422 -0.4945  0.1258
 3947SOL    HW211841   2.243   4.172   5.197 -1.0144  0.5867 -1.3810
 3948SOL     OW11842   4.017   0.711   1.107 -0.2259 -0.0543 -0.3545
 3948SOL    HW111843   4.053   0.722   1.195 -0.4606  0.1006 -0.2738
 3948SOL    HW211844   4.057   0.631   1.074 -1.9940 -1.5313  0.8536
 3949SOL     OW11845   2.523   1.511   0.730  0.5402 -0.6016  0.1924
 3949SOL    HW111846   2.499   1.582   0.788 -0.9921 -1.0289  0.1216
 3949SOL    HW211847   2.486   1.535   0.645  2.0710 -0.3608 -0.4384
 3950SOL     OW11848   1.590   4.201   3.295  0.5555  0.9160  0.2098
 3950SOL    HW111849   1.646   4.126   3.271  1.2716  1.8266 -1.1150
 3950SOL    HW211850   1.514   4.193   3.237  0.3631  0.9055  0.4621
 3951SOL     OW11851   3.764   5.615   3.176 -0.4020 -0.2610  0.3387
 3951SOL    HW111852   3.710   5.627   3.098  1.0848  0.3925 -0.6195
 3951SOL    HW211853   3.759   5.699   3.222 -0.2713 -0.2288  0.2942
 3952SOL     OW11854   3.278   0.144   3.270 -0.0676 -0.0305  0.5814
 3952SOL    HW111855   3.335   0.173   3.198  0.1063  0.4636  0.9153
 3952SOL    HW211856   3.334   0.087   3.323  0.0867  0.3592  0.8431
 3953SOL     OW11857   1.811   4.963   1.953  0.1193 -0.4053 -0.5422
 3953SOL    HW111858   1.896   4.919   1.946  0.1270 -0.2065 -2.0160
 3953SOL    HW211859   1.768   4.919   2.026  1.5539 -0.3784  0.3713
 3954SOL     OW11860   2.404   3.446   4.587 -0.2536 -0.1707  0.1017
 3954SOL    HW111861   2.377   3.356   4.605 -2.9266  0.4747 -0.3188
 3954SOL    HW211862   2.404   3.489   4.672 -2.1454  0.1743 -0.0310
 3955SOL     OW11863   3.139   0.978   2.376  0.5361  0.0125  0.5081
 3955SOL    HW111864   3.135   1.037   2.301  1.6001 -0.6860 -0.1260
 3955SOL    HW211865   3.226   0.994   2.414  0.4940 -0.5298  0.8428
 3956SOL     OW11866   2.957   3.144   0.580 -0.0147 -0.1505  0.3837
 3956SOL    HW111867   3.003   3.224   0.606  0.9276 -0.1585 -1.1752
 3956SOL    HW211868   2.884   3.175   0.526  0.1578 -0.3319  0.0477
 3957SOL     OW11869   3.815   1.882   2.121 -0.4063  0.6360 -0.0646
 3957SOL    HW111870   3.722   1.888   2.098 -0.5411  2.1650  0.7574
 3957SOL    HW211871   3.815   1.855   2.213  0.0020 -0.1705 -0.2909
 3958SOL     OW11872   1.568   3.128   5.387 -0.3535 -0.2866 -0.1475
 3958SOL    HW111873   1.596   3.037   5.386 -1.5849 -0.6837 -0.8119
 3958SOL    HW211874   1.473   3.124   5.374 -0.5872  1.0331  0.9389
 3959SOL     OW11875   4.548   5.139   2.477  0.6457  0.2499  0.1683
 3959SOL    HW111876   4.484   5.193   2.523 -0.4926 -2.3262  1.9094
 3959SOL    HW211877   4.496   5.085   2.418  1.7750  1.1596 -1.7479
 3960SOL     OW11878   2.087   1.806   5.020  0.4775 -0.3074  0.2438
 3960SOL    HW111879   2.054   1.719   4.997  0.9821 -0.5091  0.2624
 3960SOL    HW211880   2.120   1.842   4.937 -0.6303  0.2792  0.0350
 3961SOL     OW11881   5.567   3.923   3.087  0.5237  0.0150  0.0779
 3961SOL    HW111882   5.483   3.889   3.119  1.1177 -2.0091 -0.3578
 3961SOL    HW211883   5.627   3.913   3.162  0.5678  0.6870  0.1337
 3962SOL     OW11884   4.455   0.043   5.742 -0.7472 -0.4433 -0.1900
 3962SOL    HW111885   4.382   0.089   5.699  0.4908  0.3375 -1.5816
 3962SOL    HW211886   4.532   0.070   5.692  0.5714 -0.8663  1.5212
 3963SOL     OW11887   2.367   0.761   3.925  0.6167  0.1163  0.3146
 3963SOL    HW111888   2.421   0.802   3.992  3.5116 -0.4450 -1.5050
 3963SOL    HW211889   2.423   0.757   3.847 -1.9074 -0.9871 -1.6103
 3964SOL     OW11890   1.652   5.811   2.924 -0.4704  0.5541 -0.0814
 3964SOL    HW111891   1.592   5.881   2.898 -0.2279  1.0924  0.7960
 3964SOL    HW211892   1.727   5.820   2.865 -0.9424  0.2870 -0.7457
 3965SOL     OW11893   2.409   4.876   1.711 -0.0089  0.1569 -0.3209
 3965SOL    HW111894   2.371   4.936   1.776 -2.3160 -1.6887  0.2081
 3965SOL    HW211895   2.359   4.795   1.722  1.8225 -1.3314 -2.1425
 3966SOL     OW11896   3.196   5.746   4.619 -0.3963  0.2555  0.3456
 3966SOL    HW111897   3.177   5.802   4.544 -0.0885  0.5188  0.4609
 3966SOL    HW211898   3.230   5.665   4.581  1.6927  1.1182  0.2348
 3967SOL     OW11899   2.482   0.323   3.245  0.0833  0.2839 -0.5753
 3967SOL    HW111900   2.510   0.260   3.178  1.7665  1.8123 -1.4168
 3967SOL    HW211901   2.525   0.405   3.219 -0.5762  1.3392  1.4703
 3968SOL     OW11902   3.578   4.717   4.181  0.4148  0.0803 -0.0780
 3968SOL    HW111903   3.503   4.680   4.228  1.6372  0.3932  2.3088
 3968SOL    HW211904   3.544   4.797   4.140 -1.0062 -0.8634 -0.8053
 3969SOL     OW11905   2.143   1.162   2.444 -0.5463 -0.0336 -0.6792
 3969SOL    HW111906   2.101   1.247   2.433 -0.6124  0.0005 -0.1947
 3969SOL    HW211907   2.136   1.144   2.538 -0.8828 -0.7503 -0.8346
 3970SOL     OW11908   0.704   5.395   1.472 -0.9117 -0.4634  0.0938
 3970SOL    HW111909   0.778   5.433   1.426 -1.6902  0.3073 -0.5737
 3970SOL    HW211910   0.675   5.464   1.532 -0.6121 -1.0437  0.9293
 3971SOL     OW11911   2.421   0.375   4.564 -0.0862 -0.0839 -0.4634
 3971SOL    HW111912   2.350   0.332   4.516  0.3859 -0.2349 -1.0367
 3971SOL    HW211913   2.377   0.439   4.621 -0.6894 -0.3096 -0.6730
 3972SOL     OW11914   1.360   1.785   1.232 -0.2283  0.0412  0.3472
 3972SOL    HW111915   1.289   1.844   1.208 -1.8946 -1.5818  1.0419
 3972SOL    HW211916   1.416   1.838   1.289 -0.0816  1.7650 -1.3115
 3973SOL     OW11917   1.036   0.126   2.261  0.1418 -0.3977  0.6152
 3973SOL    HW111918   1.093   0.050   2.276  0.5143  0.0379  1.4801
 3973SOL    HW211919   1.001   0.147   2.348 -1.5133 -0.7689  0.0816
 3974SOL     OW11920   0.094   0.764   5.274  0.4716  0.3361 -0.0251
 3974SOL    HW111921   0.026   0.783   5.210 -0.0036  0.5641  0.5403
 3974SOL    HW211922   0.176   0.790   5.231  0.5380 -2.3345 -1.7199
 3975SOL     OW11923   2.299   4.634   1.721  0.3541 -0.4007 -0.2822
 3975SOL    HW111924   2.225   4.591   1.679 -0.6725  0.6161  0.4271
 3975SOL    HW211925   2.297   4.603   1.811 -1.2416  2.0519  0.6228
 3976SOL     OW11926   4.452   5.898   1.915 -0.2830 -0.7692 -0.0281
 3976SOL    HW111927   4.476   5.859   1.831 -0.2731 -0.8180 -0.0027
 3976SOL    HW211928   4.487   5.988   1.911 -0.9019 -0.5379 -0.3590
 3977SOL     OW11929   5.622   1.243   5.036 -0.2720  0.2493  0.3884
 3977SOL    HW111930   5.532   1.216   5.058 -0.2884  1.9497  2.7852
 3977SOL    HW211931   5.672   1.161   5.038 -1.4757 -0.5239  0.5007
 3978SOL     OW11932   2.534   4.791   2.109 -0.1020  0.1698  0.6074
 3978SOL    HW111933   2.454   4.803   2.160  0.5830 -0.6155  1.9117
 3978SOL    HW211934   2.549   4.697   2.109 -0.4352  0.0617 -1.6624
 3979SOL     OW11935   2.290   5.448   3.007  0.1716  0.1310  0.4073
 3979SOL    HW111936   2.259   5.358   3.015  0.4066  0.0313  0.1906
 3979SOL    HW211937   2.222   5.500   3.049  0.7802 -0.2789  2.0190
 3980SOL     OW11938   4.781   5.182   2.984 -0.0044  0.5081 -0.5097
 3980SOL    HW111939   4.834   5.245   3.033 -1.2186  0.1581  1.3352
 3980SOL    HW211940   4.705   5.233   2.955 -1.1244 -0.0822  1.2177
 3981SOL     OW11941   5.977   5.691   2.915 -0.5059 -0.2127  0.2687
 3981SOL    HW111942   6.068   5.700   2.942  0.1939 -1.8391 -1.2882
 3981SOL    HW211943   5.926   5.702   2.995  1.1406 -0.4216  1.3902
 3982SOL     OW11944   1.192   5.193   1.796  0.1636  0.2178  0.2724
 3982SOL    HW111945   1.101   5.162   1.799  0.1808  0.1017 -0.2198
 3982SOL    HW211946   1.191   5.275   1.845 -0.1952  0.1821  0.3325
 3983SOL     OW11947   0.323   3.029   3.570 -0.1775  0.3352  0.2905
 3983SOL    HW111948   0.332   2.997   3.481  0.9178 -0.2509  0.5869
 3983SOL    HW211949   0.243   2.988   3.602 -0.3283  0.1845 -0.2696
 3984SOL     OW11950   3.940   1.764   1.907  0.3266  0.2888 -0.1661
 3984SOL    HW111951   3.952   1.670   1.917  0.4610  0.2081 -1.0893
 3984SOL    HW211952   3.894   1.790   1.987  0.4210 -0.5293  0.1649
 3985SOL     OW11953   4.706   3.221   1.920 -0.0908  0.6992  0.2761
 3985SOL    HW111954   4.631   3.168   1.946 -0.0458  1.1049  1.2933
 3985SOL    HW211955   4.694   3.304   1.966  2.7940 -0.4473  3.5715
 3986SOL     OW11956   4.328   5.431   1.140 -0.2658 -0.1085  0.1703
 3986SOL    HW111957   4.413   5.466   1.115 -0.0420 -1.1538 -0.6066
 3986SOL    HW211958   4.284   5.413   1.057 -0.9680 -0.2243  0.5585
 3987SOL     OW11959   2.586   2.616   2.031 -0.1959 -0.1413 -0.7399
 3987SOL    HW111960   2.555   2.538   2.076  1.5097 -1.9958 -2.6109
 3987SOL    HW211961   2.625   2.669   2.101  0.2398 -1.7986  0.3318
 3988SOL     OW11962   2.906   1.522   2.279 -0.4106 -0.2418  0.3360
 3988SOL    HW111963   2.868   1.595   2.327  2.6940 -0.0277  2.8208
 3988SOL    HW211964   2.930   1.458   2.347 -0.0235 -2.0990 -1.4267
 3989SOL     OW11965   4.376   1.148   1.858 -0.0255 -0.1216 -0.2739
 3989SOL    HW111966   4.411   1.225   1.902 -1.3398  1.5321 -1.9063
 3989SOL    HW211967   4.449   1.088   1.851  1.1045  1.0689  0.8845
 3990SOL     OW11968   2.536   4.460   1.816  0.2712 -0.2812 -0.3405
 3990SOL    HW111969   2.464   4.476   1.756  0.7347 -0.7796 -1.0525
 3990SOL    HW211970   2.586   4.541   1.816 -1.8996  1.2113  2.5174
 3991SOL     OW11971   1.306   5.434   2.651  0.4729  0.1559 -0.1710
 3991SOL    HW111972   1.372   5.395   2.708  1.7585 -1.2685 -2.4555
 3991SOL    HW211973   1.354   5.457   2.571 -1.2268  2.0088 -0.7586
 3992SOL     OW11974   2.941   5.517   3.043  0.4295 -0.0653 -0.1579
 3992SOL    HW111975   2.884   5.497   3.117  0.8276 -0.5437  0.0300
 3992SOL    HW211976   2.950   5.612   3.044 -1.1836  0.1197 -0.8118
 3993SOL     OW11977   3.637   5.796   2.834  0.1019  0.6278  0.0901
 3993SOL    HW111978   3.718   5.821   2.877  0.9069 -0.6364 -0.6067
 3993SOL    HW211979   3.598   5.730   2.892 -1.5339  2.6637  1.4592
 3994SOL     OW11980   2.259   2.652   2.617 -0.3324 -0.0375 -0.1974
 3994SOL    HW111981   2.185   2.608   2.658 -0.1650  0.3535  0.5383
 3994SOL    HW211982   2.229   2.741   2.600 -0.7563 -0.4594 -1.9191
 3995SOL     OW11983   3.926   1.830   5.336  0.3981  0.8093  0.5634
 3995SOL    HW111984   3.991   1.824   5.266  0.4046  1.2689  0.5279
 3995SOL    HW211985   3.865   1.898   5.307 -0.2194  0.2390  0.4992
 3996SOL     OW11986   1.638   3.934   0.310  0.3835 -0.3013  0.0230
 3996SOL    HW111987   1.725   3.910   0.277 -0.2837  0.6233 -2.6685
 3996SOL    HW211988   1.581   3.864   0.279 -0.1950  0.3186 -0.3316
 3997SOL     OW11989   2.504   5.485   3.165 -1.0015 -0.0895 -0.3281
 3997SOL    HW111990   2.428   5.478   3.223 -2.0592  1.8619 -1.3603
 3997SOL    HW211991   2.469   5.467   3.077  0.1206 -0.8714 -0.6470
 3998SOL     OW11992   0.548   5.149   1.621  0.4484 -0.0101  0.1413
 3998SOL    HW111993   0.480   5.148   1.554  1.0597  0.4150 -0.5023
 3998SOL    HW211994   0.602   5.225   1.600 -0.4629  1.3080  2.2665
 3999SOL     OW11995   5.668   0.393   3.460 -0.3880  0.3515 -0.4292
 3999SOL    HW111996   5.729   0.322   3.443 -1.5083 -0.7092 -0.1701
 3999SOL    HW211997   5.584   0.349   3.478 -0.5765  1.5871  2.2300
 4000SOL     OW11998   5.747   5.028   0.128 -0.0736 -0.3987  0.2115
 4000SOL    HW111999   5.653   5.011   0.116 -0.4902  2.4195 -1.2225
 4000SOL    HW212000   5.759   5.026   0.223 -1.9182  0.5936  0.5185
 4001SOL     OW12001   2.868   1.349   4.120 -0.6452 -0.0771  0.4565
 4001SOL    HW112002   2.836   1.360   4.210 -1.8709  2.1721 -0.1553
 4001SOL    HW212003   2.937   1.414   4.112  0.8140 -1.5915  0.2918
 4002SOL     OW12004   2.496   5.691   0.982  0.0041 -0.0894  0.1536
 4002SOL    HW112005   2.416   5.715   1.028 -0.4027 -3.1978  1.3546
 4002SOL    HW212006   2.467   5.661   0.896  0.1289  0.6586 -0.1527
 4003SOL     OW12007   3.336   0.536   4.933  0.4556  0.6051 -0.7602
 4003SOL    HW112008   3.367   0.486   4.857 -1.1022 -2.1152  0.2540
 4003SOL    HW212009   3.372   0.489   5.009 -0.6829  1.2938  0.2476
 4004SOL     OW12010   3.320   3.560   3.204 -0.0787  0.3106 -0.4271
 4004SOL    HW112011   3.241   3.613   3.191 -0.0455 -0.0795 -2.7414
 4004SOL    HW212012   3.302   3.480   3.155  1.5455 -0.0035 -0.5505
 4005SOL     OW12013   1.024   4.102   5.450 -0.2752  0.2777  0.2541
 4005SOL    HW112014   1.041   4.052   5.370 -1.1225  0.5658 -0.1252
 4005SOL    HW212015   1.063   4.187   5.434 -0.4386  0.3330  0.1429
 4006SOL     OW12016   3.973   0.090   3.551  0.1180 -0.0558 -0.2125
 4006SOL    HW112017   3.946   0.130   3.469  2.4981  0.0294 -1.0325
 4006SOL    HW212018   3.960   0.158   3.617 -2.8032 -0.4568 -0.2263
 4007SOL     OW12019   2.775   4.023   1.926 -0.0068 -0.8068 -0.3887
 4007SOL    HW112020   2.745   4.090   1.864  0.3114 -1.4795 -1.2976
 4007SOL    HW212021   2.856   3.990   1.887 -0.3407 -1.9621 -0.1386
 4008SOL     OW12022   3.352   4.435   4.255 -0.0023  0.5256 -0.3858
 4008SOL    HW112023   3.287   4.429   4.326  1.2730 -0.3590  0.7568
 4008SOL    HW212024   3.406   4.356   4.266 -0.1370  0.0380 -2.7456
 4009SOL     OW12025   1.948   5.805   1.405 -0.0871  0.2244 -0.6735
 4009SOL    HW112026   2.010   5.739   1.373 -0.0347 -0.8989  1.5571
 4009SOL    HW212027   1.956   5.802   1.500 -3.0633  0.5408 -0.3158
 4010SOL     OW12028   4.478   5.618   4.739 -0.1758  0.8014  0.1947
 4010SOL    HW112029   4.521   5.679   4.799  0.4581  0.3525  0.1994
 4010SOL    HW212030   4.546   5.594   4.676 -1.1884  2.4198 -1.6590
 4011SOL     OW12031   2.644   2.954   4.274 -0.0697 -0.0648 -0.4059
 4011SOL    HW112032   2.648   2.930   4.367 -0.2480 -1.2116 -0.6811
 4011SOL    HW212033   2.588   2.887   4.234 -0.7153  0.9068 -1.1976
 4012SOL     OW12034   2.324   4.840   3.786 -0.0846  0.2698 -0.3247
 4012SOL    HW112035   2.233   4.871   3.787 -0.7319 -1.4222  2.3270
 4012SOL    HW212036   2.375   4.917   3.760 -2.1288  1.6428 -0.4912
 4013SOL     OW12037   1.857   5.187   4.310 -0.0307 -0.0207 -0.2080
 4013SOL    HW112038   1.794   5.245   4.268 -1.4636 -0.0448  1.7528
 4013SOL    HW212039   1.820   5.170   4.397  1.2568 -2.3749 -0.0255
 4014SOL     OW12040   1.723   4.153   4.427  0.2442 -0.4341 -0.6193
 4014SOL    HW112041   1.798   4.163   4.486 -1.0663 -0.4071  1.1332
 4014SOL    HW212042   1.647   4.152   4.485 -1.0753 -1.2178 -2.2736
 4015SOL     OW12043   0.722   5.259   3.470  0.2119  0.1678 -0.5274
 4015SOL    HW112044   0.647   5.286   3.524  1.1039  1.5049  0.0957
 4015SOL    HW212045   0.701   5.292   3.383  0.4918  1.4049 -0.1446
 4016SOL     OW12046   0.802   4.146   3.795 -0.0424  0.5832  0.0485
 4016SOL    HW112047   0.841   4.104   3.719 -0.6865 -2.2359  1.1453
 4016SOL    HW212048   0.874   4.195   3.835  1.1706 -0.6545 -0.5546
 4017SOL     OW12049   4.555   4.357   0.962  0.0611 -0.1508  0.0512
 4017SOL    HW112050   4.583   4.322   1.046  1.7566  0.9905  0.0197
 4017SOL    HW212051   4.505   4.436   0.985  0.9864  0.4638 -0.0006
 4018SOL     OW12052   2.072   5.724   2.785 -0.6557  0.3139 -0.0843
 4018SOL    HW112053   2.075   5.745   2.879  1.9761 -0.6973  0.1308
 4018SOL    HW212054   2.010   5.651   2.779  0.4036 -0.7454  1.1647
 4019SOL     OW12055   3.835   3.371   5.432 -0.6631  0.7542  0.4990
 4019SOL    HW112056   3.805   3.281   5.415 -2.4511  1.4955 -0.5325
 4019SOL    HW212057   3.848   3.375   5.526  1.5422 -1.1670  0.3857
 4020SOL     OW12058   1.222   0.210   3.642  0.1309 -0.5368  0.1928
 4020SOL    HW112059   1.250   0.227   3.552  0.6174 -1.4418  0.1569
 4020SOL    HW212060   1.190   0.294   3.674  0.4498 -0.0843 -0.6508
 4021SOL     OW12061   5.260   3.555   5.164 -0.4596 -0.4419 -0.4153
 4021SOL    HW112062   5.206   3.602   5.227 -0.2762  0.6121 -1.0040
 4021SOL    HW212063   5.264   3.614   5.088  1.6867 -0.3702 -0.3061
 4022SOL     OW12064   3.133   0.164   4.083 -0.4626  0.0757  0.2474
 4022SOL    HW112065   3.147   0.244   4.033  1.6344 -1.5584 -1.9856
 4022SOL    HW212066   3.180   0.179   4.165  0.3483  0.9636 -0.3546
 4023SOL     OW12067   3.215   4.418   0.410 -0.2180  0.2021  0.1564
 4023SOL    HW112068   3.127   4.384   0.427  0.2186 -0.4337  1.3088
 4023SOL    HW212069   3.258   4.348   0.361 -0.5381  0.7696 -0.9442
 4024SOL     OW12070   2.111   4.011   1.396 -0.3196  0.1471 -0.3670
 4024SOL    HW112071   2.144   3.942   1.339  0.4650 -0.0541  0.3185
 4024SOL    HW212072   2.016   4.013   1.379 -0.4992 -1.7223  0.2807
 4025SOL     OW12073   3.405   5.665   5.689  0.2808 -0.1324  0.5062
 4025SOL    HW112074   3.398   5.697   5.599 -0.4880 -1.7824 -0.0583
 4025SOL    HW212075   3.410   5.569   5.680  2.3656 -0.2455  2.0976
 4026SOL     OW12076   2.204   3.997   3.846  0.6421  0.5623 -0.0909
 4026SOL    HW112077   2.222   4.074   3.900 -2.2447  1.1237  0.2470
 4026SOL    HW212078   2.116   4.013   3.811  0.1144 -2.3932 -0.3361
 4027SOL     OW12079   4.631   1.868   0.380 -0.3550 -0.3355 -0.0544
 4027SOL    HW112080   4.593   1.951   0.352 -0.3856 -0.6492 -0.9880
 4027SOL    HW212081   4.556   1.813   0.401 -0.3335 -0.1188  0.5948
 4028SOL     OW12082   2.618   5.264   5.984 -0.2369 -1.0482  0.0957
 4028SOL    HW112083   2.584   5.267   5.895 -0.3968 -1.3194  0.1444
 4028SOL    HW212084   2.552   5.310   6.036  0.6763  0.6241 -0.1657
 4029SOL     OW12085   2.806   0.077   4.608 -0.4082 -0.7034 -0.2741
 4029SOL    HW112086   2.786   0.106   4.519 -0.1277 -1.9720 -0.7629
 4029SOL    HW212087   2.767  -0.010   4.615  0.8296 -1.2309  0.3497
 4030SOL     OW12088   3.618   4.867   2.101  0.8257  0.1511 -0.5121
 4030SOL    HW112089   3.660   4.917   2.171 -0.1931 -0.7962  0.8467
 4030SOL    HW212090   3.550   4.925   2.067  1.2211  0.5603 -0.6159
 4031SOL     OW12091   4.521   3.987   5.752 -0.0488  0.5125 -0.0550
 4031SOL    HW112092   4.546   3.907   5.707 -0.6772 -0.5856  1.4794
 4031SOL    HW212093   4.593   4.004   5.813 -0.6805  0.1622  0.8063
 4032SOL     OW12094   4.471   2.899   4.297  0.0962 -0.8370  0.5075
 4032SOL    HW112095   4.446   2.937   4.381 -0.7923  0.4163 -0.2881
 4032SOL    HW212096   4.411   2.825   4.286 -0.0287 -0.7846  0.8216
 4033SOL     OW12097   3.242   5.493   3.248 -1.0279  0.2766 -0.1758
 4033SOL    HW112098   3.213   5.524   3.334 -2.4858  1.4484 -1.0432
 4033SOL    HW212099   3.335   5.513   3.246 -1.4986  2.8351  0.0967
 4034SOL     OW12100   3.426   5.651   1.380  0.5665  0.2596 -0.1130
 4034SOL    HW112101   3.503   5.595   1.373 -0.8607 -1.7620 -0.8711
 4034SOL    HW212102   3.373   5.628   1.303 -1.1862  0.9132  0.8378
 4035SOL     OW12103   1.984   1.675   3.635  0.1513  0.2952  0.0879
 4035SOL    HW112104   2.025   1.750   3.593 -0.4264  0.9848  0.7222
 4035SOL    HW212105   2.027   1.599   3.596  1.6967  0.9749  0.3906
 4036SOL     OW12106   4.999   2.686   2.281 -0.1320  0.3603 -0.6607
 4036SOL    HW112107   4.911   2.707   2.311 -0.3971 -1.1859 -0.2474
 4036SOL    HW212108   4.988   2.612   2.221  0.9330 -0.6095  0.2626
 4037SOL     OW12109   3.387   5.717   4.178  0.1590  0.2575  0.3231
 4037SOL    HW112110   3.309   5.691   4.128  0.3122  0.4613 -0.0303
 4037SOL    HW212111   3.425   5.789   4.126  0.0208  0.8455  1.0197
 4038SOL     OW12112   4.002   3.901   5.401 -0.1445  0.2775 -0.1882
 4038SOL    HW112113   4.091   3.924   5.425  0.4145 -2.3675  0.5296
 4038SOL    HW212114   4.006   3.809   5.376 -2.4112  0.4964 -1.6762
 4039SOL     OW12115   1.008   5.242   5.473  0.7335  0.4334 -0.0357
 4039SOL    HW112116   1.093   5.206   5.445  0.4035 -0.4902  0.1103
 4039SOL    HW212117   1.031   5.318   5.526  1.5296 -0.3608  0.8103
 4040SOL     OW12118   1.527   5.464   0.826 -0.3521  0.1980 -0.0573
 4040SOL    HW112119   1.559   5.427   0.908 -1.2505  1.2989  0.8182
 4040SOL    HW212120   1.555   5.401   0.759  0.9545 -0.3932  0.9994
 4041SOL     OW12121   4.132   4.218   5.408  0.3933  0.7147 -0.4113
 4041SOL    HW112122   4.098   4.130   5.421  0.0474  0.5499 -2.1670
 4041SOL    HW212123   4.135   4.256   5.496 -0.7425 -0.5674  0.2168
 4042SOL     OW12124   0.713   4.668   2.109  0.4825  0.4899  0.4807
 4042SOL    HW112125   0.662   4.677   2.028 -0.1159  1.5603  0.9559
 4042SOL    HW212126   0.721   4.758   2.142  3.5435  0.5281 -0.0800
 4043SOL     OW12127   1.150   5.438   1.899  0.1977 -0.1854  0.1797
 4043SOL    HW112128   1.103   5.483   1.829 -0.0913  0.0448  0.5150
 4043SOL    HW212129   1.087   5.437   1.972  0.9525  0.7464  0.8710
 4044SOL     OW12130   2.817   5.486   5.026 -0.0464 -0.1410 -0.3843
 4044SOL    HW112131   2.768   5.565   5.050 -0.2075 -0.1636 -0.6361
 4044SOL    HW212132   2.841   5.500   4.934  0.5375 -0.0687 -0.2242
 4045SOL     OW12133   2.505   2.023   4.611 -0.2822  0.0125  0.2075
 4045SOL    HW112134   2.547   1.964   4.674 -0.0837  1.0862  1.0962
 4045SOL    HW212135   2.458   2.086   4.664  1.2618  1.9867 -0.6337
 4046SOL     OW12136   4.174   0.909   5.858  0.1052 -0.2483  0.1483
 4046SOL    HW112137   4.171   0.896   5.763  0.5801  1.5984 -0.1689
 4046SOL    HW212138   4.154   1.002   5.869 -1.2587 -0.7181  1.9785
 4047SOL     OW12139   1.818   4.231   5.307  0.3305  0.5647 -0.1729
 4047SOL    HW112140   1.840   4.310   5.357 -0.2767  0.5531  0.1324
 4047SOL    HW212141   1.852   4.159   5.361  1.8222  0.6475 -0.9609
 4048SOL     OW12142   2.218   0.270   3.809 -0.1280 -0.1351  0.4065
 4048SOL    HW112143   2.201   0.362   3.790 -0.7085  0.1313  2.1187
 4048SOL    HW212144   2.134   0.236   3.841  0.0661 -1.2805 -0.2347
 4049SOL     OW12145   1.938   4.456   5.817  0.0140  0.2636 -0.2001
 4049SOL    HW112146   1.915   4.407   5.896 -0.0803 -1.0284 -0.9857
 4049SOL    HW212147   2.001   4.399   5.771  0.7238  1.3711 -0.6473
 4050SOL     OW12148   2.268   0.430   5.118 -0.6898  0.7025 -0.0036
 4050SOL    HW112149   2.280   0.520   5.086 -0.6022  0.8201  0.3563
 4050SOL    HW212150   2.345   0.414   5.172 -1.4509  0.9600  1.1918
 4051SOL     OW12151   0.545   4.445   2.534 -0.0974 -0.2506 -0.6636
 4051SOL    HW112152   0.535   4.535   2.504  1.5388  0.1317 -0.1822
 4051SOL    HW212153   0.578   4.398   2.458  0.3093 -0.1344 -0.5652
 4052SOL     OW12154   3.024   4.220   1.280 -0.4065 -0.1527  0.1150
 4052SOL    HW112155   3.013   4.310   1.251 -0.5308  0.1253  0.9914
 4052SOL    HW212156   2.990   4.219   1.370  0.7355 -0.7862  0.5598
 4053SOL     OW12157   1.440   5.442   2.429  0.3966 -0.3204 -0.1226
 4053SOL    HW112158   1.528   5.407   2.444 -0.0280 -1.2784  0.2448
 4053SOL    HW212159   1.431   5.445   2.334  1.2599  0.9555 -0.1914
 4054SOL     OW12160   4.149   0.370   3.652 -0.4545  0.1510  0.4793
 4054SOL    HW112161   4.084   0.336   3.714 -0.6046 -1.9328 -0.7120
 4054SOL    HW212162   4.230   0.374   3.702 -0.9964  0.5223  1.3527
 4055SOL     OW12163   1.942   0.303   5.941  0.2268 -0.5294 -0.0255
 4055SOL    HW112164   1.916   0.221   5.982 -1.6789  0.3982  0.7216
 4055SOL    HW212165   1.880   0.316   5.870  0.8354  0.0359 -0.4723
 4056SOL     OW12166   3.771   4.085   2.808 -0.3842 -0.2393  0.0178
 4056SOL    HW112167   3.796   4.002   2.768 -2.4172 -0.7730 -0.2053
 4056SOL    HW212168   3.852   4.116   2.849  1.1723 -0.8522 -2.3743
 4057SOL     OW12169   1.279   0.669   1.779 -0.1627  0.7225 -0.3058
 4057SOL    HW112170   1.217   0.642   1.712 -0.6772  0.0700  0.4054
 4057SOL    HW212171   1.271   0.764   1.783  0.8343  0.9154 -2.0659
 4058SOL     OW12172   3.817   0.258   4.092  0.4157  0.2786 -0.4967
 4058SOL    HW112173   3.910   0.236   4.086  0.2493 -0.0860 -3.0583
 4058SOL    HW212174   3.771   0.175   4.085 -0.1236  0.4479  0.8284
 4059SOL     OW12175   1.168   1.270   2.974 -0.2582  0.0651  0.5447
 4059SOL    HW112176   1.104   1.228   2.917 -2.0485  1.9394  1.0287
 4059SOL    HW212177   1.213   1.333   2.918 -1.4039  1.2837  0.9439
 4060SOL     OW12178   1.480   2.496   2.847 -0.7839 -0.0866 -0.4825
 4060SOL    HW112179   1.571   2.480   2.872 -0.4847 -1.6548 -2.3289
 4060SOL    HW212180   1.429   2.443   2.907 -0.3218 -0.9984 -0.8829
 4061SOL     OW12181   5.995   5.950   4.993  0.0012 -0.0090  0.0071
 4061SOL    HW112182   6.038   6.015   5.049 -0.0157 -0.8336  0.9955
 4061SOL    HW212183   5.905   5.980   4.985  0.3382  0.8550 -0.7387
 4062SOL     OW12184   5.128   5.378   0.237  0.2362 -0.4192  0.2751
 4062SOL    HW112185   5.188   5.305   0.223 -0.5700 -0.7594 -1.6909
 4062SOL    HW212186   5.060   5.367   0.171 -0.8317  1.1806  1.0272
 4063SOL     OW12187   0.327   0.387   5.566  0.0515 -0.5849  0.1646
 4063SOL    HW112188   0.370   0.301   5.569 -1.2406 -1.3035 -0.4943
 4063SOL    HW212189   0.304   0.406   5.656  1.2255 -0.4471  0.4481
 4064SOL     OW12190   1.907   4.229   5.602 -0.0433  0.2857 -0.5620
 4064SOL    HW112191   1.892   4.318   5.570  0.9317  0.0236 -1.8488
 4064SOL    HW212192   1.820   4.195   5.619 -0.5133  1.0541 -1.3147
 4065SOL     OW12193   0.410   4.511   3.783  0.7168 -0.3514  0.2664
 4065SOL    HW112194   0.346   4.462   3.732  0.4567 -0.5524  0.7763
 4065SOL    HW212195   0.460   4.560   3.718 -0.5978  0.5927 -0.0866
 4066SOL     OW12196   5.275   2.424   3.120  0.0376  0.0358 -0.0487
 4066SOL    HW112197   5.201   2.396   3.067 -1.2885  2.2063  0.5453
 4066SOL    HW212198   5.253   2.513   3.148  0.3331 -1.0898  4.6601
 4067SOL     OW12199   0.759   0.989   0.050 -0.0547 -0.1224  0.7433
 4067SOL    HW112200   0.799   1.077   0.049 -0.2993 -0.0089  0.8307
 4067SOL    HW212201   0.833   0.929   0.038  0.1163  0.0954  0.6939
 4068SOL     OW12202   1.674   4.823   4.758  0.3927 -0.1132 -0.1567
 4068SOL    HW112203   1.703   4.822   4.667  0.6298  0.1202 -0.0858
 4068SOL    HW212204   1.745   4.866   4.806 -0.5491  1.5220 -0.1482
 4069SOL     OW12205   3.023   5.191   4.715  0.2700  0.3088  0.0979
 4069SOL    HW112206   3.061   5.270   4.677 -0.2926  0.7106  0.3649
 4069SOL    HW212207   3.068   5.119   4.670  0.4491  0.7742 -0.4815
 4070SOL     OW12208   2.011   5.910   5.486  0.2148  0.3086  0.0336
 4070SOL    HW112209   2.026   5.930   5.394  1.5855 -0.9500 -0.0483
 4070SOL    HW212210   1.931   5.958   5.508  0.2473  1.1924 -1.6067
 4071SOL     OW12211   2.180   4.012   2.770  0.3266 -0.3936  0.4716
 4071SOL    HW112212   2.193   3.929   2.816 -2.1893 -1.7821 -1.0858
 4071SOL    HW212213   2.263   4.027   2.724  1.0246 -1.7457  1.2271
 4072SOL     OW12214   5.381   4.311   5.460  0.3715  0.3532 -0.2703
 4072SOL    HW112215   5.391   4.283   5.551  1.6281 -1.8198 -1.0070
 4072SOL    HW212216   5.313   4.378   5.463  1.7519  1.7863  2.5081
 4073SOL     OW12217   3.633   3.611   4.286  0.3317 -0.0383 -0.6416
 4073SOL    HW112218   3.587   3.691   4.262  0.8692  1.4334  2.6430
 4073SOL    HW212219   3.720   3.640   4.314  0.8126 -1.8730 -0.0622
 4074SOL     OW12220   0.427   5.020   4.504 -0.0262  0.2630 -0.2887
 4074SOL    HW112221   0.354   4.961   4.485  0.7684 -1.0162  0.5138
 4074SOL    HW212222   0.468   5.035   4.419 -1.8426  1.9171 -0.9499
 4075SOL     OW12223   0.024   4.154   2.314 -0.6269  0.1007  0.4730
 4075SOL    HW112224   0.011   4.216   2.241  1.2531 -0.4504 -0.3782
 4075SOL    HW212225   0.083   4.199   2.373  0.9217 -0.8977 -0.2507
 4076SOL     OW12226   2.347   3.482   1.538 -0.6142 -0.2464 -0.4707
 4076SOL    HW112227   2.257   3.450   1.548 -0.4193 -0.0775  2.7137
 4076SOL    HW212228   2.380   3.437   1.460 -3.1907 -0.8754 -1.2915
 4077SOL     OW12229   0.444   0.668   4.521  0.2210  0.2068  0.1455
 4077SOL    HW112230   0.349   0.662   4.521  0.1301  1.4870 -0.0173
 4077SOL    HW212231   0.466   0.710   4.438  0.9760 -0.6524 -0.1087
 4078SOL     OW12232   2.123   3.860   4.574 -0.3854  0.7351 -0.2278
 4078SOL    HW112233   2.085   3.813   4.500 -0.8778  1.0868 -0.2001
 4078SOL    HW212234   2.218   3.851   4.561 -0.4665 -0.7503  0.1014
 4079SOL     OW12235   5.024   4.039   2.430  0.1676  0.0522  0.1353
 4079SOL    HW112236   4.952   4.078   2.381  1.2792  1.9529 -0.0676
 4079SOL    HW212237   5.081   4.002   2.363  0.0375 -0.3125  0.2213
 4080SOL     OW12238   1.357   3.552   4.809 -0.2188  0.1217 -0.5529
 4080SOL    HW112239   1.439   3.600   4.822  0.9067 -1.8753  0.1669
 4080SOL    HW212240   1.329   3.576   4.721  1.3789  0.5324 -0.9902
 4081SOL     OW12241   3.354   0.700   0.870 -0.7059  0.3699 -0.6650
 4081SOL    HW112242   3.317   0.614   0.851 -0.3840 -0.1266  0.8368
 4081SOL    HW212243   3.443   0.682   0.898 -1.0032  1.0776  0.7812
 4082SOL     OW12244   4.074   0.578   3.836 -0.3094 -0.5580  0.2130
 4082SOL    HW112245   4.069   0.488   3.805 -0.8452 -0.3909 -0.2058
 4082SOL    HW212246   4.121   0.625   3.767 -0.3546 -0.4453  0.2580
 4083SOL     OW12247   1.467   4.899   3.854 -0.0155  0.3792 -0.0712
 4083SOL    HW112248   1.431   4.815   3.882 -0.0393  0.6608  0.7700
 4083SOL    HW212249   1.432   4.912   3.766  0.8968 -1.0259 -0.6708
 4084SOL     OW12250   2.218   4.356   3.671  0.0761  0.0019  0.1854
 4084SOL    HW112251   2.312   4.372   3.664  0.0532 -0.6091 -2.8658
 4084SOL    HW212252   2.187   4.423   3.732  2.0964  1.9957 -0.8244
 4085SOL     OW12253   4.916   5.594   5.985  0.2983  0.0898  0.0481
 4085SOL    HW112254   4.929   5.615   5.893  1.5057  0.7873  0.3709
 4085SOL    HW212255   4.892   5.677   6.026  1.0928  0.0498  0.6027
 4086SOL     OW12256   2.775   3.863   5.935  0.3272  0.0463  0.7519
 4086SOL    HW112257   2.744   3.829   6.019 -0.3891 -1.4055 -0.0722
 4086SOL    HW212258   2.696   3.893   5.891  0.7182  0.9376  0.6391
 4087SOL     OW12259   2.584   2.105   3.126 -0.5305 -0.2034 -0.1418
 4087SOL    HW112260   2.584   2.010   3.136  0.3349 -0.1028  0.9885
 4087SOL    HW212261   2.549   2.138   3.208 -1.6695  0.4560 -0.8576
 4088SOL     OW12262   5.806   1.115   4.431 -0.5697  0.2074  0.5619
 4088SOL    HW112263   5.832   1.035   4.385 -0.6272 -1.2020  2.8329
 4088SOL    HW212264   5.713   1.103   4.450 -0.4199  0.4818  1.5239
 4089SOL     OW12265   3.100   2.927   4.170 -0.0380 -0.0970 -0.2847
 4089SOL    HW112266   3.089   2.926   4.075  0.6656 -2.7961 -0.4171
 4089SOL    HW212267   3.023   2.880   4.203 -1.3846  2.6210  0.7209
 4090SOL     OW12268   1.581   3.582   5.243 -0.0715  0.0492 -0.2091
 4090SOL    HW112269   1.640   3.572   5.168 -1.3031 -1.3900 -1.0672
 4090SOL    HW212270   1.518   3.511   5.232 -0.7454  0.2821  1.7989
 4091SOL     OW12271   3.938   3.343   4.449 -0.0177  0.1748 -0.7094
 4091SOL    HW112272   3.990   3.408   4.401  0.5534  1.3910  1.4199
 4091SOL    HW212273   3.971   3.348   4.539 -2.4758 -0.4399  0.3074
 4092SOL     OW12274   1.581   1.502   4.350  0.0047  0.0864  0.2183
 4092SOL    HW112275   1.560   1.441   4.279 -0.8680  0.1223  0.4350
 4092SOL    HW212276   1.504   1.560   4.355  1.2428  1.9112 -0.7105
 4093SOL     OW12277   4.425   1.780   4.909 -0.4701 -0.5980  0.1498
 4093SOL    HW112278   4.471   1.850   4.955 -1.0093 -0.6025  0.7141
 4093SOL    HW212279   4.343   1.820   4.880 -1.3880 -1.3211  1.6324
 4094SOL     OW12280   4.217   5.052   4.529 -0.4797 -0.3731 -0.2658
 4094SOL    HW112281   4.300   5.013   4.503 -1.3426 -2.3177 -0.2673
 4094SOL    HW212282   4.184   4.994   4.599  0.3699  2.9675  3.2445
 4095SOL     OW12283   2.135   3.048   5.604 -0.3042  0.2875 -0.2340
 4095SOL    HW112284   2.183   3.049   5.687 -0.9408  0.5714  0.1319
 4095SOL    HW212285   2.048   3.017   5.627 -0.8265  1.4502 -0.6005
 4096SOL     OW12286   1.253   3.111   0.671  0.3227 -0.2357  0.2324
 4096SOL    HW112287   1.230   3.198   0.705 -0.1277 -0.7924  1.3785
 4096SOL    HW212288   1.290   3.064   0.746 -1.4666 -1.7738  0.2259
 4097SOL     OW12289   2.309   4.700   4.888 -0.5058 -0.0837 -0.3920
 4097SOL    HW112290   2.316   4.607   4.907 -0.0303  0.1299  0.5890
 4097SOL    HW212291   2.348   4.743   4.965 -1.1756  0.9319 -0.5984
 4098SOL     OW12292   3.671   4.928   3.342  0.1849 -0.1677  0.0240
 4098SOL    HW112293   3.739   4.953   3.404  0.2071 -3.3662  1.5263
 4098SOL    HW212294   3.589   4.951   3.385  0.2410  1.1345 -0.5353
 4099SOL     OW12295   1.181   5.348   3.231 -0.7286 -0.1184 -0.8582
 4099SOL    HW112296   1.114   5.411   3.259 -2.5810 -1.9088 -0.9863
 4099SOL    HW212297   1.214   5.311   3.312 -1.5872 -0.8629 -0.8347
 4100SOL     OW12298   2.735   4.090   5.582 -0.1860 -0.5303 -0.1893
 4100SOL    HW112299   2.649   4.072   5.546  0.4947 -0.6534 -1.8244
 4100SOL    HW212300   2.718   4.121   5.671 -1.8741 -0.9612 -0.3356
 4101SOL     OW12301   5.613   4.177   5.379  0.0130 -0.4721 -0.4451
 4101SOL    HW112302   5.529   4.218   5.401  0.7058  0.1321  1.2986
 4101SOL    HW212303   5.653   4.237   5.316 -1.4326 -1.5135 -2.4543
 4102SOL     OW12304   0.324   0.425   3.344  0.2142 -0.8704 -0.3683
 4102SOL    HW112305   0.400   0.438   3.288  0.0533 -0.7507 -0.5617
 4102SOL    HW212306   0.259   0.385   3.287 -0.5873  0.8882 -0.7738
 4103SOL     OW12307   1.947   5.068   3.686  0.1557 -0.8133  0.0946
 4103SOL    HW112308   1.897   5.148   3.668  0.6831 -0.8649 -1.8267
 4103SOL    HW212309   1.912   5.037   3.769 -0.1177  1.3700  0.8743
 4104SOL     OW12310   2.874   3.601   5.137  0.4912  0.4660 -0.4300
 4104SOL    HW112311   2.804   3.537   5.150 -0.0610  1.0322 -0.5579
 4104SOL    HW212312   2.864   3.663   5.209  0.1840  1.1399 -1.0308
 4105SOL     OW12313   3.091   3.442   2.252 -0.7182 -0.6081  0.0054
 4105SOL    HW112314   3.169   3.418   2.301  0.9573  2.6203 -0.8105
 4105SOL    HW212315   3.101   3.397   2.168 -0.2853 -1.0621  0.2935
 4106SOL     OW12316   3.669   2.965   0.819  0.1751 -0.1466  0.6807
 4106SOL    HW112317   3.652   2.915   0.899 -1.0928  0.7146  0.9951
 4106SOL    HW212318   3.667   2.900   0.749 -2.0670 -0.5388  1.0086
 4107SOL     OW12319   4.227   6.007   3.129 -0.1091  0.4155 -0.3497
 4107SOL    HW112320   4.146   6.041   3.093 -0.5597  0.9624  1.1296
 4107SOL    HW212321   4.246   5.929   3.076 -1.9321 -0.0869 -0.3134
 4108SOL     OW12322   0.739   3.091   5.291 -0.6181  0.2266 -0.3860
 4108SOL    HW112323   0.811   3.127   5.344  0.3426 -1.4651 -0.4679
 4108SOL    HW212324   0.665   3.148   5.310  0.3015  1.0264  1.0290
 4109SOL     OW12325   4.460   4.219   1.590  0.2241 -0.1936  0.8823
 4109SOL    HW112326   4.526   4.227   1.521 -1.3923  1.0623 -0.5927
 4109SOL    HW212327   4.426   4.130   1.581  0.1513 -0.0970  0.1951
 4110SOL     OW12328   1.339   3.197   5.927 -0.7151 -0.0016  0.2852
 4110SOL    HW112329   1.362   3.109   5.899  0.5335  0.2561  0.4409
 4110SOL    HW212330   1.335   3.191   6.022  0.9796  0.4462  0.4131
 4111SOL     OW12331   1.569   5.955   1.567 -0.0213 -0.2016 -0.0321
 4111SOL    HW112332   1.638   5.975   1.630 -0.7536 -1.3839  1.1843
 4111SOL    HW212333   1.592   5.868   1.534 -2.2239 -1.8102  2.3177
 4112SOL     OW12334   2.252   4.641   0.680  0.0233  0.3520  0.3596
 4112SOL    HW112335   2.314   4.613   0.748 -0.3734  0.8394  0.9292
 4112SOL    HW212336   2.217   4.559   0.645  1.3346  0.0417 -0.3159
 4113SOL     OW12337   3.568   0.970   4.771 -0.0900  0.0512 -0.8111
 4113SOL    HW112338   3.479   0.947   4.800  0.3385  1.0746  1.5337
 4113SOL    HW212339   3.621   0.894   4.794  0.1821  0.7169  0.8923
 4114SOL     OW12340   2.206   3.236   4.699 -0.4525 -0.1320 -0.0023
 4114SOL    HW112341   2.141   3.248   4.768  0.8774  2.9056  0.8847
 4114SOL    HW212342   2.155   3.233   4.618 -1.8876 -1.6820  0.8995
 4115SOL     OW12343   1.423   5.702   5.077 -0.4338  0.1255  0.3524
 4115SOL    HW112344   1.394   5.638   5.012  1.2935 -0.0809 -0.2725
 4115SOL    HW212345   1.460   5.773   5.025 -0.3234  0.6081  1.0879
 4116SOL     OW12346   4.444   3.772   3.910  0.3676  0.6784 -0.6393
 4116SOL    HW112347   4.488   3.839   3.962  1.5108  0.4302 -1.2514
 4116SOL    HW212348   4.449   3.693   3.963 -1.7963  1.2330  0.4935
 4117SOL     OW12349   3.488   4.261   5.273  0.2938 -0.5843 -0.0622
 4117SOL    HW112350   3.525   4.214   5.198  0.9437  0.7006 -0.5792
 4117SOL    HW212351   3.441   4.194   5.322  0.4255 -1.5908 -1.2510
 4118SOL     OW12352   5.664   3.142   3.378 -0.2563  0.4882 -0.0649
 4118SOL    HW112353   5.673   3.085   3.302 -0.0036  0.3325  0.0821
 4118SOL    HW212354   5.744   3.194   3.378 -1.1525  1.9396 -1.0927
 4119SOL     OW12355   0.234   4.045   4.168  0.0315  0.2543  0.3010
 4119SOL    HW112356   0.172   4.084   4.229  1.3553 -1.0364  2.6292
 4119SOL    HW212357   0.320   4.066   4.203  1.0626  2.0389 -2.8616
 4120SOL     OW12358   4.738   4.451   5.129  0.0293  0.4412  0.5482
 4120SOL    HW112359   4.749   4.525   5.189 -1.2190  3.3236 -2.4839
 4120SOL    HW212360   4.645   4.432   5.130  0.1199 -0.0582  0.1482
 4121SOL     OW12361   3.496   0.675   4.666 -0.3055  0.6365 -0.2465
 4121SOL    HW112362   3.422   0.693   4.609 -0.8628  0.3911  0.3913
 4121SOL    HW212363   3.486   0.582   4.689 -0.6893  0.9920  1.0995
 4122SOL     OW12364   4.846   1.771   0.468 -0.1645  0.5902  0.2565
 4122SOL    HW112365   4.915   1.833   0.446  0.0250  0.5111  0.6190
 4122SOL    HW212366   4.768   1.805   0.423  0.5562 -0.4546 -1.9170
 4123SOL     OW12367   3.137   4.853   0.014  0.2892  0.2041  0.3265
 4123SOL    HW112368   3.196   4.780  -0.005 -2.2713 -2.0957  0.4849
 4123SOL    HW212369   3.115   4.843   0.106 -2.6885 -1.0554 -0.3893
 4124SOL     OW12370   1.451   3.676   0.532 -0.1169  0.0160  0.4418
 4124SOL    HW112371   1.432   3.586   0.561 -0.4975  0.2732  1.0124
 4124SOL    HW212372   1.486   3.719   0.610  1.3528 -0.0012 -0.1738
 4125SOL     OW12373   1.564   3.013   5.078  0.1215 -0.3964  0.3056
 4125SOL    HW112374   1.548   3.105   5.059 -0.2058 -0.2819  1.0673
 4125SOL    HW212375   1.655   3.010   5.107  0.3107 -0.4102 -0.2861
 4126SOL     OW12376   2.188   5.232   3.703 -0.6467 -0.1482 -0.3212
 4126SOL    HW112377   2.211   5.162   3.763  0.3862 -0.4342 -1.0069
 4126SOL    HW212378   2.095   5.220   3.685 -0.3661 -1.7268 -0.8899
 4127SOL     OW12379   3.867   5.010   3.501  0.1956  0.1913 -0.3528
 4127SOL    HW112380   3.867   5.060   3.583  2.0257  0.1610 -0.2837
 4127SOL    HW212381   3.960   4.996   3.482 -0.1711  0.4587 -2.5977
 4128SOL     OW12382   2.717   4.117   5.216  0.6765  0.1324  0.3181
 4128SOL    HW112383   2.724   4.139   5.123 -0.5805 -1.4110 -0.1765
 4128SOL    HW212384   2.707   4.022   5.217  0.0003  0.2015  1.9974
 4129SOL     OW12385   1.559   5.577   2.980 -0.5775 -0.5565 -0.4226
 4129SOL    HW112386   1.567   5.589   3.075 -0.4916 -0.6447 -0.4190
 4129SOL    HW212387   1.588   5.661   2.943 -3.4903  0.6254 -0.2772
 4130SOL     OW12388   4.416   1.373   0.529  0.2755 -0.2466  0.0726
 4130SOL    HW112389   4.439   1.364   0.621  0.5103 -1.5449 -0.0887
 4130SOL    HW212390   4.321   1.365   0.526 -0.0023  2.2842  0.4392
 4131SOL     OW12391   3.508   4.405   4.858 -0.0951  0.2568 -0.3679
 4131SOL    HW112392   3.479   4.439   4.773 -1.6654 -1.1599 -0.4585
 4131SOL    HW212393   3.468   4.463   4.922  0.4897  0.8895 -0.5597
 4132SOL     OW12394   2.047   4.206   4.376  0.1020  0.0969 -0.3814
 4132SOL    HW112395   2.078   4.165   4.457 -0.8001  0.1081 -0.0135
 4132SOL    HW212396   2.063   4.300   4.389 -0.2684  0.1267 -0.0953
 4133SOL     OW12397   1.483   5.080   5.519 -0.0546  0.2069 -0.1863
 4133SOL    HW112398   1.575   5.085   5.495 -0.2961 -0.1897 -1.2412
 4133SOL    HW212399   1.480   5.017   5.591  0.3225 -0.9851 -1.1812
 4134SOL     OW12400   1.556   0.278   4.641 -0.4156  0.2159 -0.1854
 4134SOL    HW112401   1.542   0.202   4.585 -0.2885  0.3723 -0.4340
 4134SOL    HW212402   1.471   0.321   4.646 -0.5196 -0.0234  0.0734
 4135SOL     OW12403   0.281   4.332   4.645  0.1007 -0.0362 -0.9207
 4135SOL    HW112404   0.344   4.361   4.579 -1.2459 -1.5462 -2.9911
 4135SOL    HW212405   0.278   4.237   4.635 -1.0301 -0.1754  0.5065
 4136SOL     OW12406   4.704   3.704   4.392 -0.0139 -0.4441  0.0766
 4136SOL    HW112407   4.659   3.622   4.375 -0.9193 -0.2833  1.5662
 4136SOL    HW212408   4.705   3.712   4.487  0.6799  0.9310 -0.0182
 4137SOL     OW12409   3.905   4.722   0.399 -0.2687  0.3632  0.1858
 4137SOL    HW112410   3.908   4.805   0.351  1.2207  0.5807  0.6127
 4137SOL    HW212411   3.882   4.747   0.489  1.0760  0.4323  0.5236
 4138SOL     OW12412   3.620   3.750   5.085  0.0513 -0.1133 -0.4734
 4138SOL    HW112413   3.531   3.714   5.090 -0.6913  1.6098 -0.3795
 4138SOL    HW212414   3.677   3.674   5.090 -1.4303 -1.3348 -1.2353
 4139SOL     OW12415   1.498   3.429   2.351  0.2310  0.2507  0.5033
 4139SOL    HW112416   1.554   3.491   2.304  1.0496 -1.3773 -0.7638
 4139SOL    HW212417   1.413   3.472   2.357  0.1454  0.6363 -2.3042
 4140SOL     OW12418   4.042   5.335   5.569  0.1115  0.2979 -0.3097
 4140SOL    HW112419   3.988   5.404   5.531 -0.6148 -0.5216 -0.8326
 4140SOL    HW212420   4.034   5.346   5.664 -2.7490 -1.0447 -0.2946
 4141SOL     OW12421   2.106   5.642   3.374  0.1888 -0.1740 -0.2518
 4141SOL    HW112422   2.167   5.568   3.371  0.2519 -0.1926  0.8266
 4141SOL    HW212423   2.137   5.702   3.306  2.6554  0.7220  1.5110
 4142SOL     OW12424   3.022   4.020   4.482 -0.4296  0.3099 -0.4057
 4142SOL    HW112425   2.993   3.992   4.396 -4.2367 -0.0587  0.8002
 4142SOL    HW212426   3.104   3.973   4.497 -0.2484 -0.4684 -3.3256
 4143SOL     OW12427   2.664   4.103   0.126 -0.1055  0.1105  0.4755
 4143SOL    HW112428   2.753   4.078   0.152  0.0245  1.3309  1.2766
 4143SOL    HW212429   2.608   4.042   0.173  0.3099 -1.3250 -0.8103
 4144SOL     OW12430   1.053   2.592   5.709 -0.2946  0.4580 -0.6765
 4144SOL    HW112431   1.086   2.675   5.673  0.1052  1.2506  1.3605
 4144SOL    HW212432   1.067   2.600   5.803 -1.2643 -1.5070 -0.3160
 4145SOL     OW12433   1.663   0.924   0.632 -0.1893 -0.3679 -0.3340
 4145SOL    HW112434   1.728   0.913   0.701 -1.3269  0.3429  0.9012
 4145SOL    HW212435   1.603   0.851   0.644 -0.6271 -0.0072 -0.2874
 4146SOL     OW12436   4.244   3.486   0.940 -0.0384 -0.7748 -0.3247
 4146SOL    HW112437   4.264   3.483   0.846  2.3062 -0.8715  0.1138
 4146SOL    HW212438   4.275   3.402   0.974  1.4910  0.2010  0.8854
 4147SOL     OW12439   1.419   4.852   3.592  0.3393 -0.1894 -0.2576
 4147SOL    HW112440   1.477   4.915   3.550  0.1914 -0.7907 -1.3918
 4147SOL    HW212441   1.456   4.766   3.570  0.0841 -0.5322  0.5947
 4148SOL     OW12442   3.116   5.777   5.574 -0.7802  0.1369  0.3445
 4148SOL    HW112443   3.131   5.871   5.584 -1.2162  0.2920 -0.4038
 4148SOL    HW212444   3.196   5.744   5.534 -0.6250  0.1798  0.6120
 4149SOL     OW12445   2.286   2.634   2.172  0.3561  0.4255  0.5984
 4149SOL    HW112446   2.204   2.589   2.192 -0.2866 -0.4121 -3.1707
 4149SOL    HW212447   2.354   2.569   2.187 -0.0877 -0.1916 -0.0144
 4150SOL     OW12448   2.127   5.732   2.280  0.3684 -0.3195 -0.2748
 4150SOL    HW112449   2.130   5.659   2.342  1.8988  0.9449  1.2328
 4150SOL    HW212450   2.080   5.801   2.327  1.3686  0.5846 -0.5820
 4151SOL     OW12451   1.499   3.911   4.041  0.0117  0.0958 -0.0592
 4151SOL    HW112452   1.502   3.997   4.081 -2.6887  0.0464  0.4477
 4151SOL    HW212453   1.498   3.929   3.947  1.0583  0.4915 -0.0103
 4152SOL     OW12454   3.320   2.805   5.851 -0.1887  0.2642  0.0282
 4152SOL    HW112455   3.334   2.810   5.946  0.9467  0.3109 -0.1196
 4152SOL    HW212456   3.383   2.868   5.815  0.1449 -0.5274 -0.8117
 4153SOL     OW12457   0.682   4.935   2.352  0.0443 -0.0872 -0.1864
 4153SOL    HW112458   0.753   4.975   2.402 -0.2735 -1.7148  1.7102
 4153SOL    HW212459   0.611   5.000   2.356  0.5021  0.3945  0.3242
 4154SOL     OW12460   1.319   0.837   3.246  0.0014 -0.0713  0.3643
 4154SOL    HW112461   1.341   0.814   3.336 -1.3402  1.1149  1.0359
 4154SOL    HW212462   1.233   0.799   3.232 -0.2165  0.5670 -0.0818
 4155SOL     OW12463   2.176   2.492   5.978 -0.2651  0.3678  0.0148
 4155SOL    HW112464   2.269   2.504   5.997  0.0924 -0.9064 -0.7926
 4155SOL    HW212465   2.156   2.560   5.913 -0.3448  1.7124  1.3866
 4156SOL     OW12466   4.975   3.668   4.664 -0.0799  0.1437 -0.2058
 4156SOL    HW112467   5.002   3.752   4.628  2.4609 -0.2026  0.6774
 4156SOL    HW212468   4.976   3.608   4.589 -0.3502  0.5783 -0.5582
 4157SOL     OW12469   5.830   2.479   1.777 -0.0552  0.9198 -0.0669
 4157SOL    HW112470   5.895   2.417   1.745 -1.2594 -0.2084 -0.3890
 4157SOL    HW212471   5.775   2.428   1.837 -1.9520  1.2458 -1.4264
 4158SOL     OW12472   4.818   4.911   0.883 -0.4669  0.1651 -0.4960
 4158SOL    HW112473   4.907   4.880   0.902  0.1879  0.5797 -2.6468
 4158SOL    HW212474   4.829   5.005   0.870 -1.4031  0.3619  0.0870
 4159SOL     OW12475   4.152   2.384   3.945  0.0839  0.0760 -0.1559
 4159SOL    HW112476   4.219   2.331   3.902  1.4022  1.4480  0.1394
 4159SOL    HW212477   4.112   2.433   3.873  0.8194  0.7789 -0.0948
 4160SOL     OW12478   1.692   4.893   2.221  0.4690 -0.3955  0.3214
 4160SOL    HW112479   1.747   4.816   2.208  1.2137 -0.0739  1.4253
 4160SOL    HW212480   1.632   4.868   2.292  0.7057  0.0160  0.6762
 4161SOL     OW12481   4.272   5.715   5.017 -0.0861  0.6015 -0.9987
 4161SOL    HW112482   4.318   5.792   5.051  0.2907  0.0716 -0.2650
 4161SOL    HW212483   4.213   5.749   4.950 -0.6155  1.6592 -0.0354
 4162SOL     OW12484   0.272   5.857   1.383  0.9082  0.0177 -0.2137
 4162SOL    HW112485   0.194   5.863   1.437  0.2635  0.8262 -1.1816
 4162SOL    HW212486   0.253   5.786   1.322  1.9085 -1.3457  1.0072
 4163SOL     OW12487   4.653   4.029   5.201 -0.2334  0.3830  0.1262
 4163SOL    HW112488   4.640   3.952   5.256 -0.6999  1.0881  1.0348
 4163SOL    HW212489   4.739   4.016   5.161 -0.8455 -1.2091 -0.7485
 4164SOL     OW12490   2.024   5.057   2.427 -0.2958 -0.5132  0.3251
 4164SOL    HW112491   2.034   5.065   2.522  1.0316 -0.2112  0.1688
 4164SOL    HW212492   2.050   4.967   2.407 -1.9903 -1.0570  0.4013
 4165SOL     OW12493   1.629   4.134   5.680  0.1420 -0.0620  0.2596
 4165SOL    HW112494   1.596   4.210   5.728  1.8784 -0.2082  1.7738
 4165SOL    HW212495   1.558   4.111   5.620 -0.7365  2.2627  0.3091
 4166SOL     OW12496   5.318   5.516   1.457  0.0133 -0.0769  0.1795
 4166SOL    HW112497   5.329   5.571   1.380 -0.9398 -0.6350 -0.3787
 4166SOL    HW212498   5.305   5.579   1.529 -1.7504  0.4728 -0.5553
 4167SOL     OW12499   4.097   4.486   3.948 -0.1077  0.5928  0.6070
 4167SOL    HW112500   4.005   4.465   3.932 -0.2106  0.7375  0.9850
 4167SOL    HW212501   4.095   4.562   4.006  0.2618  1.6820 -0.7711
 4168SOL     OW12502   0.349   4.396   4.153  0.1360 -1.0089  0.1473
 4168SOL    HW112503   0.337   4.321   4.094 -0.6047 -0.8261  0.0598
 4168SOL    HW212504   0.260   4.428   4.170  0.2420 -1.7553  2.2962
 4169SOL     OW12505   2.521   5.039   3.426 -0.2443 -0.1797  0.1692
 4169SOL    HW112506   2.614   5.051   3.407 -0.6209 -0.2838 -2.0341
 4169SOL    HW212507   2.487   4.993   3.349 -1.9254 -1.1087  1.4093
 4170SOL     OW12508   3.621   3.315   3.166  0.0187  0.1539  0.1736
 4170SOL    HW112509   3.679   3.252   3.208  1.2168  0.2229 -1.2851
 4170SOL    HW212510   3.667   3.341   3.086 -1.5797  0.9836 -0.5390
 4171SOL     OW12511   1.926   4.672   3.581 -0.0192 -0.8019 -0.5822
 4171SOL    HW112512   1.855   4.723   3.620  0.4145 -0.0754 -0.7263
 4171SOL    HW212513   1.980   4.737   3.536 -0.3470 -1.5629 -2.1642
 4172SOL     OW12514   5.358   5.125   5.502  0.0947 -0.2047  0.4657
 4172SOL    HW112515   5.350   5.039   5.461 -3.9762 -0.8131  2.0634
 4172SOL    HW212516   5.388   5.107   5.591 -2.0379 -0.2505  1.2382
 4173SOL     OW12517   5.137   0.447   4.525  0.2458  0.0511  0.3300
 4173SOL    HW112518   5.056   0.491   4.552  0.6527  0.6335  0.6251
 4173SOL    HW212519   5.125   0.356   4.553 -0.7500 -0.1323 -0.5975
 4174SOL     OW12520   2.895   5.141   1.194 -0.1482  0.2741  0.2273
 4174SOL    HW112521   2.975   5.188   1.217 -0.8617  0.8134  1.7306
 4174SOL    HW212522   2.919   5.088   1.118  1.7667  0.0414  0.9505
 4175SOL     OW12523   0.727   5.213   4.497 -0.0987 -0.0753 -0.5052
 4175SOL    HW112524   0.713   5.121   4.519  1.8972 -0.6458 -1.4453
 4175SOL    HW212525   0.724   5.215   4.401 -0.2391  0.8722 -0.4915
 4176SOL     OW12526   1.718   4.358   3.518 -0.2213  0.4283 -0.2129
 4176SOL    HW112527   1.670   4.308   3.452 -0.9672  1.2580 -0.3226
 4176SOL    HW212528   1.794   4.393   3.471  0.3562 -0.6531 -0.1103
 4177SOL     OW12529   3.897   4.895   4.434 -0.4704  0.1986  0.1281
 4177SOL    HW112530   3.804   4.904   4.416  0.0216  1.3633 -2.2802
 4177SOL    HW212531   3.905   4.913   4.528 -2.6342  0.0956  0.3803
 4178SOL     OW12532   0.058   1.312   3.173  0.2984 -0.0453 -0.4449
 4178SOL    HW112533   0.077   1.272   3.088  2.5611  3.5259 -1.8859
 4178SOL    HW212534   0.103   1.257   3.236  0.2992 -1.6616 -1.7648
 4179SOL     OW12535   4.647   5.770   0.271 -0.1929 -0.0321 -0.0546
 4179SOL    HW112536   4.624   5.845   0.326 -0.2044 -0.0033 -0.0992
 4179SOL    HW212537   4.584   5.703   0.296 -1.4520  0.5999 -1.4155
 4180SOL     OW12538   3.175   3.875   5.004  0.1354  0.3605  0.3932
 4180SOL    HW112539   3.121   3.916   5.071  0.8307 -0.0213  1.2089
 4180SOL    HW212540   3.251   3.933   4.996  0.8969 -0.4841  1.2193
 4181SOL     OW12541   1.741   4.981   5.400  0.1251  0.4200 -0.3961
 4181SOL    HW112542   1.808   4.922   5.435  1.1205  2.3680  1.1738
 4181SOL    HW212543   1.790   5.055   5.365 -1.1402  0.7299 -1.5983
 4182SOL     OW12544   2.076   5.208   4.779  0.1497 -0.1912  0.1648
 4182SOL    HW112545   2.149   5.270   4.789  0.3817 -0.5540  0.7680
 4182SOL    HW212546   2.106   5.148   4.712  0.6200 -0.6297  0.7559
 4183SOL     OW12547   5.459   3.587   4.731  0.2431  0.3593  0.3449
 4183SOL    HW112548   5.420   3.503   4.752 -0.8571  0.8535  0.3593
 4183SOL    HW212549   5.415   3.616   4.651  1.4077  0.4182 -0.2987
 4184SOL     OW12550   3.175   4.135   3.755 -0.6308  0.3615  0.1895
 4184SOL    HW112551   3.204   4.215   3.799 -0.0821  0.2042  0.1170
 4184SOL    HW212552   3.236   4.123   3.682 -2.5893  1.6173 -1.7716
 4185SOL     OW12553   3.765   0.858   2.804 -0.3533  0.1144 -0.2307
 4185SOL    HW112554   3.671   0.842   2.789 -0.3218 -0.8034  0.5049
 4185SOL    HW212555   3.809   0.789   2.754 -0.0695  0.3427 -0.3009
 4186SOL     OW12556   3.213   4.375   5.208  0.1456 -0.0184 -0.0422
 4186SOL    HW112557   3.178   4.320   5.278 -0.2749  0.5374  0.1906
 4186SOL    HW212558   3.308   4.364   5.214  0.1202  0.0789  0.6680
 4187SOL     OW12559   3.349   3.494   3.986  0.1258  0.0063 -0.8038
 4187SOL    HW112560   3.335   3.426   4.052 -1.9425  1.2449  0.1313
 4187SOL    HW212561   3.275   3.486   3.926 -1.0295  2.3035  0.1811
 4188SOL     OW12562   1.740   1.015   3.433 -0.3067  0.2452  0.5846
 4188SOL    HW112563   1.690   1.068   3.372  0.5737  0.5180  0.0859
 4188SOL    HW212564   1.831   1.026   3.406  0.2242  1.1816  2.5476
 4189SOL     OW12565   2.689   4.311   2.838  0.6156  0.0037  0.7394
 4189SOL    HW112566   2.778   4.344   2.847  0.6176  0.0522  0.5356
 4189SOL    HW212567   2.680   4.291   2.745  0.2167  0.5560  0.6530
 4190SOL     OW12568   3.819   3.568   5.059  0.0326 -0.1530  0.2446
 4190SOL    HW112569   3.914   3.570   5.056  0.1723 -1.2338  2.2727
 4190SOL    HW212570   3.796   3.476   5.042 -0.4842 -0.3365  1.7425
 4191SOL     OW12571   3.834   0.229   0.299 -0.2430  0.4372  0.0114
 4191SOL    HW112572   3.787   0.152   0.333 -1.1301  1.0871  0.3115
 4191SOL    HW212573   3.794   0.246   0.214  1.2725 -0.5685 -0.9257
 4192SOL     OW12574   1.829   4.965   3.921  0.2627 -0.1116 -0.3084
 4192SOL    HW112575   1.768   4.891   3.929  0.3869 -0.1295  0.5684
 4192SOL    HW212576   1.785   5.037   3.965  0.7902 -0.0743  0.1693
 4193SOL     OW12577   4.013   4.131   5.701  0.1577  0.6819 -0.3698
 4193SOL    HW112578   4.054   4.217   5.715  0.0810  0.6421  0.1326
 4193SOL    HW212579   4.085   4.068   5.715  0.4462  0.6884 -1.6809
 4194SOL     OW12580   1.711   4.436   4.398 -0.1267  0.3030 -0.5657
 4194SOL    HW112581   1.638   4.456   4.340 -0.4663 -1.0452 -0.6472
 4194SOL    HW212582   1.724   4.342   4.388  0.2659  0.1586  1.0044
 4195SOL     OW12583   0.950   1.453   5.546  0.1807 -0.1576 -0.1884
 4195SOL    HW112584   0.887   1.386   5.518 -1.0280  1.4979 -1.6762
 4195SOL    HW212585   0.915   1.535   5.511  1.4683  1.3278  1.7400
 4196SOL     OW12586   4.942   4.832   4.248 -0.0370 -0.4694 -0.1949
 4196SOL    HW112587   4.896   4.753   4.218 -1.0157  0.0207 -0.0468
 4196SOL    HW212588   4.913   4.843   4.338 -1.3951  1.0818 -0.7705
 4197SOL     OW12589   1.481   0.062   3.949  0.2162  0.5212  0.0242
 4197SOL    HW112590   1.395   0.099   3.967  1.0820  2.7893 -0.0971
 4197SOL    HW212591   1.512   0.111   3.873  1.4703 -0.5024 -0.1554
 4198SOL     OW12592   2.177   5.829   3.177  0.0466  0.3089 -0.8082
 4198SOL    HW112593   2.187   5.905   3.119 -0.6113 -0.5112 -2.0321
 4198SOL    HW212594   2.236   5.763   3.141  1.3286  0.5070  0.7974
 4199SOL     OW12595   2.003   0.441   1.215  0.1181 -0.1982 -0.2140
 4199SOL    HW112596   2.046   0.507   1.270  2.7631  0.0410 -2.3647
 4199SOL    HW212597   2.010   0.360   1.266 -0.2102  0.5254  1.0361
 4200SOL     OW12598   4.329   1.505   1.507 -0.0217 -1.0330 -0.6295
 4200SOL    HW112599   4.378   1.583   1.481 -2.3524  0.6369 -0.3420
 4200SOL    HW212600   4.321   1.454   1.426  0.4622 -0.3502 -1.1229
 4201SOL     OW12601   2.219   3.244   2.880 -0.1822 -0.0631  0.4773
 4201SOL    HW112602   2.140   3.232   2.933  0.3007 -0.0472  1.2137
 4201SOL    HW212603   2.194   3.308   2.814 -0.7707 -0.0135  0.7415
 4202SOL     OW12604   0.492   0.960   1.267 -0.2696 -0.4211 -0.3077
 4202SOL    HW112605   0.493   1.052   1.293  3.0301 -0.3804 -0.1280
 4202SOL    HW212606   0.422   0.921   1.318 -2.3481  2.0918 -1.0197
 4203SOL     OW12607   5.211   1.704   1.674 -0.0114 -0.0186  0.8389
 4203SOL    HW112608   5.139   1.761   1.648 -0.6072 -0.7122  0.9191
 4203SOL    HW212609   5.234   1.656   1.595 -1.7460 -2.0414  1.4746
 4204SOL     OW12610   4.059   0.351   4.845  0.4518 -0.1402 -0.9926
 4204SOL    HW112611   4.121   0.423   4.858  0.8295 -0.5784 -0.3050
 4204SOL    HW212612   4.067   0.329   4.752 -1.0433  1.9176 -1.6742
 4205SOL     OW12613   2.046   3.016   3.473  0.3709 -0.4820  0.3122
 4205SOL    HW112614   2.004   3.055   3.550  1.0730 -0.2924  0.6042
 4205SOL    HW212615   2.094   2.941   3.508 -0.5991 -1.3654 -0.1785
 4206SOL     OW12616   2.514   4.693   5.103 -0.2942  0.1784 -0.5214
 4206SOL    HW112617   2.561   4.714   5.022 -0.6296  0.4064 -0.6579
 4206SOL    HW212618   2.545   4.758   5.166 -0.1534  0.1018 -0.5116
 4207SOL     OW12619   2.721   2.395   5.819 -0.2535 -0.1269 -0.8038
 4207SOL    HW112620   2.625   2.396   5.826 -0.3013 -0.4317 -1.3010
 4207SOL    HW212621   2.747   2.486   5.833 -0.3315 -0.5181  2.6050
 4208SOL     OW12622   0.972   5.308   3.593  0.0549 -0.4339  0.1600
 4208SOL    HW112623   0.885   5.282   3.561  0.8645 -1.0684 -1.6090
 4208SOL    HW212624   0.977   5.268   3.680 -0.9366 -1.4702 -0.2321
 4209SOL     OW12625   4.862   3.660   4.899 -0.1904  0.3276 -0.2128
 4209SOL    HW112626   4.889   3.655   4.807  0.2383  1.1977 -0.1376
 4209SOL    HW212627   4.941   3.687   4.946 -0.9448  2.1133  0.1153
 4210SOL     OW12628   2.544   1.664   5.449 -0.2636  0.8393 -0.0812
 4210SOL    HW112629   2.500   1.622   5.523  0.1290 -1.6740 -1.1840
 4210SOL    HW212630   2.633   1.628   5.451 -0.2076  0.8587 -1.6706
 4211SOL     OW12631   2.308   4.843   2.257  0.7002  0.1265  0.2984
 4211SOL    HW112632   2.346   4.854   2.344 -0.6483 -3.4360  1.5562
 4211SOL    HW212633   2.213   4.845   2.272  0.4092  1.2281 -1.4310
 4212SOL     OW12634   1.517   4.054   0.687 -0.6472 -0.3335 -0.8477
 4212SOL    HW112635   1.423   4.055   0.669 -0.7144  0.1412 -0.5093
 4212SOL    HW212636   1.531   3.974   0.738 -0.8120 -0.5689 -1.1693
 4213SOL     OW12637   2.710   3.315   3.121  0.0196 -0.3154  0.2075
 4213SOL    HW112638   2.708   3.391   3.179 -1.4449 -0.7802  0.8186
 4213SOL    HW212639   2.634   3.328   3.064  1.5503  0.2522 -1.8183
 4214SOL     OW12640   1.422   5.918   0.585 -0.0923  0.4550 -0.1228
 4214SOL    HW112641   1.394   5.891   0.672  1.5582  0.3139  0.3962
 4214SOL    HW212642   1.348   5.969   0.551 -1.0833 -0.1566  1.0219
 4215SOL     OW12643   2.110   5.390   0.006  0.1010  0.1522  0.0629
 4215SOL    HW112644   2.161   5.404  -0.074 -1.8986 -1.6652 -1.6700
 4215SOL    HW212645   2.166   5.423   0.076  2.7206  0.1867 -1.8827
 4216SOL     OW12646   4.812   0.236   0.663  0.3991  0.1079 -0.7860
 4216SOL    HW112647   4.796   0.176   0.590  1.2153  1.1982 -1.8807
 4216SOL    HW212648   4.878   0.297   0.631  2.2571 -0.5360  1.5115
 4217SOL     OW12649   3.058   3.719   0.588  0.2444 -0.6616  0.7569
 4217SOL    HW112650   3.141   3.706   0.633  1.2899  0.5304 -0.7087
 4217SOL    HW212651   3.082   3.758   0.504 -1.8288  0.1126  0.4589
 4218SOL     OW12652   3.894   4.770   2.223 -0.4163  0.2616 -0.1525
 4218SOL    HW112653   3.937   4.841   2.272  1.8176 -0.3842 -1.0480
 4218SOL    HW212654   3.874   4.809   2.138  3.5758 -0.8183 -1.7909
 4219SOL     OW12655   1.965   0.130   0.905 -0.3674  0.1965 -0.4794
 4219SOL    HW112656   1.960   0.214   0.949  1.2859  0.8405 -1.4514
 4219SOL    HW212657   1.907   0.140   0.828 -0.6294  0.2289 -0.2796
 4220SOL     OW12658   2.294   3.592   2.688  0.3597 -0.6258  0.4302
 4220SOL    HW112659   2.268   3.504   2.660  1.5309 -1.3325  1.4306
 4220SOL    HW212660   2.378   3.606   2.643 -1.7074  1.8132 -3.1775
 4221SOL     OW12661   5.789   1.015   3.939  0.1497 -0.1429  0.2480
 4221SOL    HW112662   5.793   0.925   3.971 -0.3705 -0.7688 -1.3609
 4221SOL    HW212663   5.863   1.059   3.981 -0.4012 -0.9366  2.1452
 4222SOL     OW12664   2.606   4.926   5.231 -0.8445 -0.0144  0.4548
 4222SOL    HW112665   2.579   5.000   5.177  0.2167 -0.2659 -0.4545
 4222SOL    HW212666   2.701   4.932   5.234 -0.8269 -0.5362  1.5625
 4223SOL     OW12667   5.497   3.271   2.625  0.2995 -0.4101 -0.3342
 4223SOL    HW112668   5.514   3.365   2.636  1.2132 -0.6304  0.1748
 4223SOL    HW212669   5.555   3.245   2.553 -1.9271 -0.0496 -2.4119
 4224SOL     OW12670   1.115   0.524   3.035 -0.4138  0.2213  0.3035
 4224SOL    HW112671   1.144   0.503   3.123  0.3020  1.3474  0.3522
 4224SOL    HW212672   1.194   0.520   2.981 -0.7774 -0.0847 -0.2234
 4225SOL     OW12673   1.824   3.699   5.719 -0.4158 -0.1722  0.4402
 4225SOL    HW112674   1.735   3.672   5.742 -0.2608 -1.5222 -0.4635
 4225SOL    HW212675   1.840   3.775   5.775 -1.1293 -1.5084  2.5940
 4226SOL     OW12676   3.657   2.207   5.476 -0.0668  0.1731  0.1652
 4226SOL    HW112677   3.566   2.210   5.445 -0.5553 -0.0299  1.4921
 4226SOL    HW212678   3.710   2.199   5.397 -1.1408  1.3660 -0.7018
 4227SOL     OW12679   1.867   5.537   5.690 -0.0692 -0.0794 -0.3369
 4227SOL    HW112680   1.959   5.562   5.681  0.1600 -0.7498  0.0287
 4227SOL    HW212681   1.831   5.547   5.602  1.0515 -2.3765 -1.1610
 4228SOL     OW12682   4.673   3.288   5.180  0.2471  0.0172 -0.5142
 4228SOL    HW112683   4.649   3.207   5.225 -0.5120  1.0188  0.9646
 4228SOL    HW212684   4.593   3.341   5.182  1.0847  1.3103 -0.2678
 4229SOL     OW12685   3.462   1.940   1.163  0.0930 -0.3017 -0.5129
 4229SOL    HW112686   3.450   1.870   1.227 -1.2148  0.1245 -0.2554
 4229SOL    HW212687   3.551   1.928   1.131  0.6479 -0.7729  1.0921
 4230SOL     OW12688   3.820   4.673   2.807  0.9400  0.8063 -0.4082
 4230SOL    HW112689   3.811   4.578   2.800 -1.1365  0.6146  2.7976
 4230SOL    HW212690   3.745   4.708   2.760  1.3442  0.8605 -1.0261
 4231SOL     OW12691   5.741   3.963   0.830 -0.3828  0.0014  0.0359
 4231SOL    HW112692   5.715   4.055   0.831 -0.2521  0.0330  0.6762
 4231SOL    HW212693   5.658   3.915   0.838 -0.2654  0.1106  3.2393
 4232SOL     OW12694   5.113   2.995   4.607  0.6069  0.2124  0.4862
 4232SOL    HW112695   5.139   2.973   4.697  4.2099  2.2615  0.1215
 4232SOL    HW212696   5.121   2.913   4.559 -1.0578 -0.8426  1.8832
 4233SOL     OW12697   0.013   4.882   5.321 -0.2350 -0.1092  0.4130
 4233SOL    HW112698  -0.056   4.897   5.386 -1.3695  1.1467 -1.0211
 4233SOL    HW212699   0.083   4.840   5.371 -0.8217  1.3053  2.5850
 4234SOL     OW12700   3.332   0.159   1.354  0.3315  0.0822 -0.4272
 4234SOL    HW112701   3.262   0.163   1.289 -0.2082 -0.1381  0.1299
 4234SOL    HW212702   3.386   0.086   1.326 -1.4058 -1.7961  0.8197
 4235SOL     OW12703   2.339   2.120   1.227  0.3276  0.1188 -0.2259
 4235SOL    HW112704   2.369   2.144   1.315  2.5379  0.2360 -0.9483
 4235SOL    HW212705   2.321   2.203   1.184  1.3846  0.1717 -0.5740
 4236SOL     OW12706   0.963   3.750   0.657  0.3747  0.3831  0.0557
 4236SOL    HW112707   0.984   3.696   0.733  1.5783  1.1182  0.2730
 4236SOL    HW212708   1.022   3.719   0.589  0.9552  1.2970  0.1335
 4237SOL     OW12709   4.051   4.012   3.570 -0.0078  0.2929  0.1236
 4237SOL    HW112710   3.967   3.986   3.607 -0.4824 -0.5031 -1.4094
 4237SOL    HW212711   4.085   4.077   3.631 -1.4506  0.1877  1.0960
 4238SOL     OW12712   5.692   1.607   5.123  0.0774 -0.0329  0.1550
 4238SOL    HW112713   5.629   1.606   5.052 -0.9457  1.2330  0.9988
 4238SOL    HW212714   5.762   1.664   5.093 -0.4379  0.6419  0.2172
 4239SOL     OW12715   5.507   4.432   4.362 -0.3715  0.2936  0.3672
 4239SOL    HW112716   5.551   4.408   4.280 -1.9024 -0.6571 -0.2171
 4239SOL    HW212717   5.554   4.509   4.393  0.7250  0.2114 -1.0082
 4240SOL     OW12718   1.697   2.505   5.165 -0.5240 -0.5157  0.0815
 4240SOL    HW112719   1.685   2.507   5.070  0.6714  0.1584 -0.0742
 4240SOL    HW212720   1.780   2.461   5.178 -0.6933 -0.6247  0.8217
 4241SOL     OW12721   0.744   5.040   5.969  0.1129 -0.0860  0.6742
 4241SOL    HW112722   0.685   5.103   6.012 -0.6653 -1.2940  1.4343
 4241SOL    HW212723   0.738   5.062   5.876 -1.4281 -0.0601  0.7533
 4242SOL     OW12724   1.308   3.974   0.901  0.9411  0.2090 -0.0818
 4242SOL    HW112725   1.238   4.026   0.940 -0.2216 -1.0507 -0.4153
 4242SOL    HW212726   1.279   3.957   0.812  2.0481  0.3128 -0.4851
 4243SOL     OW12727   2.662   5.689   0.048  0.3603 -0.3830 -0.5939
 4243SOL    HW112728   2.672   5.776   0.087 -2.4428 -0.5152  0.6867
 4243SOL    HW212729   2.726   5.687  -0.023  0.8720  2.5287 -0.3497
 4244SOL     OW12730   1.245   4.677   5.479  0.2162 -0.1730 -0.5541
 4244SOL    HW112731   1.253   4.646   5.569 -1.7685  0.8606  0.0345
 4244SOL    HW212732   1.330   4.717   5.460  0.6462 -0.3509  0.8694
 4245SOL     OW12733   3.505   3.287   4.312 -0.9508  0.4576 -0.3659
 4245SOL    HW112734   3.527   3.316   4.400 -2.7194  2.5248 -0.5087
 4245SOL    HW212735   3.574   3.322   4.256  0.0342 -0.6371  0.1391
 4246SOL     OW12736   5.990   0.313   0.159 -0.0445  0.2045  0.2223
 4246SOL    HW112737   5.894   0.314   0.163 -0.0735 -1.8433  1.4278
 4246SOL    HW212738   6.018   0.378   0.224 -0.5988  0.5260  0.1489
 4247SOL     OW12739   3.595   3.495   5.715  0.4991  0.2911 -0.2243
 4247SOL    HW112740   3.603   3.408   5.675 -1.0692 -0.5524  1.1768
 4247SOL    HW212741   3.510   3.528   5.685  0.0740  0.3662  0.9883
 4248SOL     OW12742   4.530   1.992   5.065  0.2080 -0.1247  0.1911
 4248SOL    HW112743   4.479   2.017   5.142  0.4232 -0.2462  0.3740
 4248SOL    HW212744   4.618   2.025   5.082  0.6587 -1.5368  0.7246
 4249SOL     OW12745   5.323   3.555   3.804  0.1809  0.0037  0.0264
 4249SOL    HW112746   5.331   3.639   3.848 -1.3724  0.6779 -0.9039
 4249SOL    HW212747   5.245   3.564   3.748 -1.2354 -2.6868  1.3626
 4250SOL     OW12748   3.467   0.998   5.832  0.5992 -0.2169 -0.0365
 4250SOL    HW112749   3.503   0.995   5.743 -1.7366  0.5063 -1.0833
 4250SOL    HW212750   3.535   0.958   5.886  2.6769  0.4958 -1.9316
 4251SOL     OW12751   3.826   3.313   3.399 -0.1312 -0.7845  0.4014
 4251SOL    HW112752   3.795   3.392   3.355  1.3562  0.3958  1.4129
 4251SOL    HW212753   3.889   3.344   3.464  0.0973 -2.7601  1.1902
 4252SOL     OW12754   1.311   4.365   0.369  1.0332 -0.6187  0.0715
 4252SOL    HW112755   1.340   4.417   0.444  2.0854 -0.4226 -0.4503
 4252SOL    HW212756   1.339   4.276   0.390  1.0358 -0.6215  0.0562
 4253SOL     OW12757   2.329   5.926   4.779 -0.1450 -0.6845  0.4523
 4253SOL    HW112758   2.367   5.860   4.721  1.1063  2.2505 -2.3563
 4253SOL    HW212759   2.235   5.922   4.761  0.0756 -0.7965 -0.7693
 4254SOL     OW12760   5.285   0.591   0.850  0.7137 -0.5683 -0.1611
 4254SOL    HW112761   5.193   0.568   0.839  0.9991 -1.0016 -1.8586
 4254SOL    HW212762   5.328   0.560   0.771  2.6562 -1.9145  1.3198
 4255SOL     OW12763   1.020   4.225   0.645  0.2584  0.1688 -1.0489
 4255SOL    HW112764   1.025   4.164   0.571 -0.8223  3.0881 -3.7329
 4255SOL    HW212765   1.098   4.279   0.637 -0.1146  0.8370 -0.3177
 4256SOL     OW12766   1.933   5.619   4.042  0.4214 -0.1369 -0.1696
 4256SOL    HW112767   2.009   5.612   4.100 -0.1233  0.2241  0.5867
 4256SOL    HW212768   1.859   5.588   4.094  0.1376 -1.1638 -1.1221
 4257SOL     OW12769   3.621   3.811   5.692 -0.1576  0.6116 -0.1656
 4257SOL    HW112770   3.538   3.764   5.699 -0.1262  0.7055  0.9350
 4257SOL    HW212771   3.647   3.798   5.600  0.0128 -1.8181  0.1492
 4258SOL     OW12772   3.169   4.210   5.425  0.2388 -0.2530  0.6735
 4258SOL    HW112773   3.200   4.121   5.410 -1.0611 -0.7790  1.0225
 4258SOL    HW212774   3.074   4.202   5.431  0.1072  1.1519  0.7548
 4259SOL     OW12775   0.687   0.371   0.996  0.1354  0.1724  0.4477
 4259SOL    HW112776   0.631   0.300   0.965 -0.9779  0.4586  1.7326
 4259SOL    HW212777   0.772   0.330   1.011  0.2840 -0.3006 -1.3979
 4260SOL     OW12778   3.848   2.475   4.301  0.5314 -0.2489  0.0736
 4260SOL    HW112779   3.913   2.513   4.242  0.7199 -0.8829 -0.1455
 4260SOL    HW212780   3.820   2.547   4.356  1.3295  0.0699  0.0841
 4261SOL     OW12781   2.554   1.070   4.610 -0.6571  0.1158  0.1208
 4261SOL    HW112782   2.567   0.988   4.658  0.2122 -0.8055 -1.5868
 4261SOL    HW212783   2.504   1.125   4.669 -0.4644 -1.3143  1.6809
 4262SOL     OW12784   5.457   5.583   2.785 -0.0051  0.5826  0.0650
 4262SOL    HW112785   5.535   5.529   2.792 -0.9160 -0.6386  1.4451
 4262SOL    HW212786   5.468   5.632   2.704  0.6693 -2.0275 -1.5018
 4263SOL     OW12787   2.614   1.590   4.161 -0.5966  0.5368  0.4687
 4263SOL    HW112788   2.671   1.631   4.226  0.2806 -1.0941  0.7940
 4263SOL    HW212789   2.595   1.503   4.197  0.8584 -0.8818 -1.9054
 4264SOL     OW12790   5.585   1.072   2.782  0.0377  0.4707 -0.6264
 4264SOL    HW112791   5.518   1.004   2.777  0.5391 -0.1456  0.6708
 4264SOL    HW212792   5.544   1.144   2.829 -0.3229  0.8825 -1.5424
 4265SOL     OW12793   1.597   5.958   5.716 -0.7834 -0.1380 -0.2003
 4265SOL    HW112794   1.632   5.872   5.739  0.7451 -0.6226 -3.6330
 4265SOL    HW212795   1.549   5.943   5.634 -0.8228  2.1951 -0.6737
 4266SOL     OW12796   3.436   1.124   1.296  0.1412  0.1635  0.1543
 4266SOL    HW112797   3.450   1.210   1.334  0.0755 -0.2307  1.1006
 4266SOL    HW212798   3.524   1.089   1.280  0.1900 -0.0739  0.9032
 4267SOL     OW12799   1.654   5.726   5.840 -0.3674 -0.4647 -0.1545
 4267SOL    HW112800   1.662   5.758   5.930 -2.2455  1.0573 -0.4523
 4267SOL    HW212801   1.716   5.653   5.835  2.4718  1.6598  1.2688
 4268SOL     OW12802   5.008   4.129   1.196 -0.7585  0.3956 -0.3538
 4268SOL    HW112803   4.976   4.172   1.117 -1.4860  0.4212 -0.0496
 4268SOL    HW212804   4.954   4.051   1.206 -0.6936  0.4049  0.1270
 4269SOL     OW12805   1.870   0.888   3.108 -0.3702 -0.1391  0.2711
 4269SOL    HW112806   1.825   0.947   3.048  1.5314  0.4594 -0.6440
 4269SOL    HW212807   1.904   0.946   3.177  0.5762 -0.2808 -0.0572
 4270SOL     OW12808   1.824   1.734   5.943 -0.3792 -0.5515  0.3674
 4270SOL    HW112809   1.812   1.783   6.024  0.9149  0.7047 -0.1537
 4270SOL    HW212810   1.784   1.789   5.876  0.5945 -0.4583 -0.1505
 4271SOL     OW12811   3.259   5.874   1.113 -0.0625 -0.1375 -0.5125
 4271SOL    HW112812   3.311   5.930   1.170  0.7298 -0.0934 -1.2531
 4271SOL    HW212813   3.320   5.807   1.082 -0.8811 -1.1427 -0.0161
 4272SOL     OW12814   3.118   0.201   1.981  0.1095 -0.2335 -0.1333
 4272SOL    HW112815   3.064   0.137   1.935 -0.3591  0.4402 -0.5316
 4272SOL    HW212816   3.196   0.210   1.925 -0.5283  0.7008 -0.9121
 4273SOL     OW12817   1.066   5.368   0.317 -0.6994 -0.0549 -0.6701
 4273SOL    HW112818   1.101   5.450   0.352 -0.4907  0.1643 -1.3750
 4273SOL    HW212819   0.982   5.356   0.362  1.0207 -1.5571  2.4833
 4274SOL     OW12820   2.780   1.019   0.068  0.5984 -0.7414  0.4934
 4274SOL    HW112821   2.783   1.071   0.148  0.8883 -2.3561  1.5571
 4274SOL    HW212822   2.858   0.963   0.072  0.4081 -1.1383 -0.7374
 4275SOL     OW12823   1.034   0.457   1.649 -0.1992 -0.0927  0.3400
 4275SOL    HW112824   0.953   0.455   1.597  1.2508  0.1923 -2.1200
 4275SOL    HW212825   1.054   0.365   1.666 -0.3477 -0.2374 -0.2477
 4276SOL     OW12826   0.420   1.572   3.957 -0.1336 -0.5795  0.1685
 4276SOL    HW112827   0.389   1.609   4.039 -1.9509  1.5608 -1.3530
 4276SOL    HW212828   0.347   1.586   3.895  1.0991 -2.1978 -1.7942
 4277SOL     OW12829   3.154   1.720   1.017  0.0366  0.1044 -0.1531
 4277SOL    HW112830   3.122   1.810   1.006 -1.4467 -0.4401 -0.4885
 4277SOL    HW212831   3.166   1.688   0.928  0.0215 -0.2113 -0.0416
 4278SOL     OW12832   4.856   0.846   2.528 -0.4807 -0.1491  0.3474
 4278SOL    HW112833   4.874   0.806   2.613  1.3319 -0.4372 -0.1421
 4278SOL    HW212834   4.780   0.902   2.544 -2.4357 -2.8583  1.3163
 4279SOL     OW12835   0.795   3.992   2.908  0.1373 -0.4431  0.0776
 4279SOL    HW112836   0.886   4.016   2.892 -0.0460 -0.1338 -0.4991
 4279SOL    HW212837   0.800   3.919   2.970  0.7515  0.0685  0.6440
 4280SOL     OW12838   1.657   1.970   1.861 -0.2825 -0.5731  0.4592
 4280SOL    HW112839   1.712   2.024   1.804 -2.3552  0.6655 -0.4830
 4280SOL    HW212840   1.666   2.010   1.947 -0.2854  0.0932  0.1601
 4281SOL     OW12841   2.529   5.265   5.732  0.1443 -0.0921 -0.0247
 4281SOL    HW112842   2.553   5.298   5.645 -0.1430  1.1231  0.3315
 4281SOL    HW212843   2.471   5.191   5.715 -0.2504  0.3959 -0.8695
 4282SOL     OW12844   2.734   0.165   1.443 -0.0228  0.7165 -0.0494
 4282SOL    HW112845   2.652   0.211   1.462 -0.0843  0.6556 -0.1628
 4282SOL    HW212846   2.798   0.234   1.426 -0.0933  0.7603 -0.1348
 4283SOL     OW12847   3.476   1.715   2.958 -0.2282  0.5385 -0.6836
 4283SOL    HW112848   3.472   1.621   2.979 -0.0081  0.4447 -1.0485
 4283SOL    HW212849   3.444   1.721   2.868 -1.2222  0.9457 -0.3186
 4284SOL     OW12850   5.517   5.736   0.810  0.2043  0.0682 -0.2203
 4284SOL    HW112851   5.469   5.801   0.861  0.5752 -0.7519  1.2362
 4284SOL    HW212852   5.456   5.664   0.798  0.0190  0.3759 -1.2394
 4285SOL     OW12853   1.681   1.133   4.163 -0.0824  0.3218 -0.0366
 4285SOL    HW112854   1.738   1.100   4.093 -0.2509 -1.8308  0.7567
 4285SOL    HW212855   1.738   1.140   4.239  0.1517  2.8914 -0.3754
 4286SOL     OW12856   2.829   2.658   2.758 -0.2804 -0.0237 -0.4293
 4286SOL    HW112857   2.854   2.651   2.850  0.1570  0.4018 -0.5129
 4286SOL    HW212858   2.835   2.568   2.724  0.9281  0.0263 -0.3896
 4287SOL     OW12859   1.450   3.390   5.054 -0.7265 -0.9786 -0.0791
 4287SOL    HW112860   1.413   3.337   5.124 -2.2714  0.5971  0.3881
 4287SOL    HW212861   1.375   3.437   5.018  0.5606  0.9487 -0.3900
 4288SOL     OW12862   3.760   4.195   5.540 -0.8101  0.2343  0.0370
 4288SOL    HW112863   3.782   4.185   5.448  1.4232  3.0217  0.1362
 4288SOL    HW212864   3.823   4.139   5.586 -0.7368  0.2469 -0.0482
 4289SOL     OW12865   5.129   4.928   3.455 -0.3773  0.5555  0.4973
 4289SOL    HW112866   5.129   4.898   3.546 -0.6834  1.3929  0.7802
 4289SOL    HW212867   5.138   5.023   3.461  0.6722  0.5363 -0.3800
 4290SOL     OW12868   2.699   0.342   4.966  0.6037 -0.1179 -0.5843
 4290SOL    HW112869   2.707   0.323   4.873 -1.2610 -0.8793 -0.6181
 4290SOL    HW212870   2.610   0.375   4.977  0.3392 -1.2625  1.1087
 4291SOL     OW12871   2.583   5.950   4.937 -0.0487  0.7063  0.0177
 4291SOL    HW112872   2.509   5.994   4.896 -0.0823  2.4484  1.8202
 4291SOL    HW212873   2.613   6.010   5.005  0.8677 -1.4293  1.6187
 4292SOL     OW12874   2.714   3.568   3.939  0.5215  0.1596  0.3013
 4292SOL    HW112875   2.650   3.587   4.008 -0.5583  0.9529 -0.8645
 4292SOL    HW212876   2.709   3.644   3.881  0.6067 -0.9665 -1.2315
 4293SOL     OW12877   4.701   5.267   1.593  0.4104 -0.5003  0.3599
 4293SOL    HW112878   4.788   5.256   1.555 -0.0927  0.4415 -1.1563
 4293SOL    HW212879   4.660   5.181   1.587  0.4429 -0.4273 -1.0119
 4294SOL     OW12880   5.419   0.569   4.911  0.0758  0.4699 -0.2463
 4294SOL    HW112881   5.362   0.582   4.835 -0.7824 -0.4816  0.2127
 4294SOL    HW212882   5.402   0.645   4.967 -1.7848 -0.4554  0.5064
 4295SOL     OW12883   2.370   5.852   0.569  0.1327 -0.0815  0.2736
 4295SOL    HW112884   2.318   5.932   0.564 -1.2270 -0.9711 -0.8657
 4295SOL    HW212885   2.414   5.847   0.484 -1.3770 -1.4946 -0.4937
 4296SOL     OW12886   4.465   5.045   5.459 -0.2969 -0.6386  0.0887
 4296SOL    HW112887   4.373   5.053   5.481 -0.7024  1.0644 -1.8868
 4296SOL    HW212888   4.498   5.135   5.462  0.9417 -1.0481 -0.5836
 4297SOL     OW12889   4.838   0.222   1.404  0.5616  0.1095  0.2142
 4297SOL    HW112890   4.753   0.181   1.393  0.5519  0.4910 -1.4966
 4297SOL    HW212891   4.886   0.164   1.462 -0.5556 -0.5878  0.4580
 4298SOL     OW12892   2.000   1.938   5.478 -0.4041  0.0321  0.6265
 4298SOL    HW112893   1.990   1.867   5.541 -1.2869 -0.0853  0.3684
 4298SOL    HW212894   1.947   2.009   5.514  0.8871  0.7606  1.1546
 4299SOL     OW12895   1.898   5.510   0.533  0.6268  0.1367 -0.8603
 4299SOL    HW112896   1.874   5.594   0.494  0.0426  1.2810  1.7141
 4299SOL    HW212897   1.851   5.444   0.481 -3.2547  1.8251  0.1584
 4300SOL     OW12898   2.743   5.123   3.645  0.1188 -0.3205 -0.2075
 4300SOL    HW112899   2.700   5.126   3.730 -2.6297  0.4019 -1.4957
 4300SOL    HW212900   2.681   5.076   3.589  1.9723 -1.0344 -1.7777
 4301SOL     OW12901   2.526   1.593   1.750 -0.4436 -0.8008  0.5945
 4301SOL    HW112902   2.453   1.631   1.800  0.4488 -1.2078  2.2941
 4301SOL    HW212903   2.489   1.574   1.664 -1.5197  1.8299  0.3684
 4302SOL     OW12904   3.752   5.834   0.379 -0.1203  0.1268 -0.2134
 4302SOL    HW112905   3.744   5.924   0.411  1.7699  0.3789 -0.3033
 4302SOL    HW212906   3.715   5.780   0.449 -0.1082  0.9137  0.4110
 4303SOL     OW12907   0.551   0.691   3.605  0.3594  0.4280  0.6371
 4303SOL    HW112908   0.612   0.743   3.554  1.3886  1.2696  2.6070
 4303SOL    HW212909   0.590   0.604   3.608 -0.9538 -0.3468 -1.9755
 4304SOL     OW12910   1.370   5.650   2.232 -0.1964  0.4650 -0.1533
 4304SOL    HW112911   1.403   5.740   2.233  0.2898  0.3128 -1.0224
 4304SOL    HW212912   1.420   5.608   2.162 -1.6901  0.0129 -0.9752
 4305SOL     OW12913   4.157   1.329   0.613  0.4408 -0.5738 -0.3895
 4305SOL    HW112914   4.142   1.237   0.636 -0.6767  0.1733  2.2652
 4305SOL    HW212915   4.069   1.363   0.593  0.9812 -0.3094 -2.5253
 4306SOL     OW12916   2.847   3.920   3.911  0.0174 -0.2933  0.1208
 4306SOL    HW112917   2.768   3.898   3.861  0.9209 -0.6519 -1.1931
 4306SOL    HW212918   2.882   3.836   3.939  1.6469 -0.4353 -2.0579
 4307SOL     OW12919   3.816   0.608   3.514  0.2393  0.0792 -0.2914
 4307SOL    HW112920   3.785   0.671   3.450  1.7170 -0.3389 -1.4805
 4307SOL    HW212921   3.789   0.523   3.480  1.3642 -0.1774 -0.5976
 4308SOL     OW12922   5.453   4.967   2.269  0.2517  0.1317  0.0527
 4308SOL    HW112923   5.499   4.902   2.216 -1.4343 -0.5777 -0.5859
 4308SOL    HW212924   5.366   4.930   2.283 -0.2519  1.5829  0.9665
 4309SOL     OW12925   2.399   5.098   2.213 -0.0988 -0.2761 -0.0032
 4309SOL    HW112926   2.361   5.011   2.223 -1.2317  0.3059  1.0560
 4309SOL    HW212927   2.358   5.150   2.282  0.3566  1.1656 -0.7772
 4310SOL     OW12928   0.077   5.525   2.265 -0.5122 -0.5722  0.2370
 4310SOL    HW112929   0.074   5.430   2.269  4.3183 -1.1082 -1.7038
 4310SOL    HW212930   0.112   5.551   2.350  1.2257 -0.9718 -0.3123
 4311SOL     OW12931   3.543   5.289   2.024 -0.2889 -0.4187 -0.2334
 4311SOL    HW112932   3.617   5.288   1.963 -0.2440  1.8755 -0.2955
 4311SOL    HW212933   3.493   5.211   2.002  1.6852 -1.6317 -0.7083
 4312SOL     OW12934   4.254   4.382   2.210  0.3819  0.2058 -0.5990
 4312SOL    HW112935   4.254   4.321   2.136 -1.1598  0.8319 -1.1664
 4312SOL    HW212936   4.235   4.328   2.286 -0.0663 -0.1704 -0.9718
 4313SOL     OW12937   2.747   5.239   2.667  0.0054  0.5493  0.4596
 4313SOL    HW112938   2.789   5.213   2.585 -0.8700  0.5218  0.0143
 4313SOL    HW212939   2.816   5.285   2.715  0.5475  0.5076 -0.2610
 4314SOL     OW12940   5.847   4.937   2.857 -0.4994  0.1863 -0.8307
 4314SOL    HW112941   5.928   4.902   2.821 -1.3322 -1.0037 -1.6154
 4314SOL    HW212942   5.838   4.895   2.942 -0.4122  0.1393 -0.8448
 4315SOL     OW12943   2.978   4.747   5.704 -0.5632 -0.3237 -0.7834
 4315SOL    HW112944   3.069   4.716   5.701 -0.5695 -0.4568  0.0621
 4315SOL    HW212945   2.975   4.820   5.643  1.6149  3.4671  3.1018
 4316SOL     OW12946   3.444   5.623   5.165 -0.1257 -0.7026  0.1705
 4316SOL    HW112947   3.481   5.711   5.166  0.2472 -0.8583  0.7215
 4316SOL    HW212948   3.500   5.573   5.225  2.0995 -2.2867 -2.8959
 4317SOL     OW12949   1.312   5.668   2.875 -0.5563  0.5012  0.4113
 4317SOL    HW112950   1.387   5.638   2.927 -1.5164  0.1264  1.6128
 4317SOL    HW212951   1.287   5.592   2.823  0.5331  0.9352 -0.8173
 4318SOL     OW12952   4.019  -0.013   5.561  0.1464 -0.1125  0.0641
 4318SOL    HW112953   4.114  -0.000   5.557 -0.1058  1.9185 -0.4373
 4318SOL    HW212954   3.983   0.075   5.565 -1.7774 -0.7981 -0.9211
 4319SOL     OW12955   0.219   4.394   3.613  0.7291  0.2218 -0.7218
 4319SOL    HW112956   0.209   4.440   3.530 -0.8556 -0.6289 -1.0316
 4319SOL    HW212957   0.289   4.330   3.597  1.6717  1.2401 -0.8273
 4320SOL     OW12958   3.969   1.530   0.961 -0.0354 -0.0972 -0.3114
 4320SOL    HW112959   3.958   1.448   1.009 -0.0792 -0.0035 -0.1607
 4320SOL    HW212960   3.919   1.594   1.011  0.7722  0.2267  0.1013
 4321SOL     OW12961   2.077   1.254   4.226  0.7620  0.2831  0.2291
 4321SOL    HW112962   2.064   1.287   4.137  1.9421  1.0234  0.3030
 4321SOL    HW212963   2.141   1.184   4.216 -0.1961 -0.6272  0.3341
 4322SOL     OW12964   4.482   0.459   1.612 -0.2116  0.2813  0.5155
 4322SOL    HW112965   4.533   0.528   1.655  1.2559 -0.0599 -0.6046
 4322SOL    HW212966   4.448   0.499   1.533 -0.3659  0.0584  0.4667
 4323SOL     OW12967   2.787   1.980   1.420  0.1117  0.3661  0.3506
 4323SOL    HW112968   2.708   1.928   1.434 -0.3082  0.9791  0.2458
 4323SOL    HW212969   2.851   1.943   1.482 -0.0038 -0.6357 -0.1001
 4324SOL     OW12970   1.533   4.444   0.567 -0.1378  0.4004  0.1112
 4324SOL    HW112971   1.622   4.439   0.602 -0.5963 -1.3043  1.1674
 4324SOL    HW212972   1.542   4.489   0.483  1.7570  0.0413  0.0854
 4325SOL     OW12973   2.266   5.525   2.739  0.3959  0.8803 -0.2303
 4325SOL    HW112974   2.285   5.504   2.830  0.5648  0.4446 -0.3649
 4325SOL    HW212975   2.227   5.612   2.742 -0.5610  0.4372  0.3573
 4326SOL     OW12976   1.602   3.372   1.134 -0.0505  0.3074  0.4103
 4326SOL    HW112977   1.655   3.328   1.200 -1.8060 -0.5554  1.3071
 4326SOL    HW212978   1.602   3.312   1.059  1.1268  0.8396 -0.0524
 4327SOL     OW12979   0.682   0.222   1.878  0.4275  0.2181  0.4044
 4327SOL    HW112980   0.740   0.274   1.822  1.2041  0.1951  1.1765
 4327SOL    HW212981   0.736   0.199   1.954 -0.5281  0.0254  1.0397
 4328SOL     OW12982   3.968   3.527   3.551 -0.6169  0.0280  0.3233
 4328SOL    HW112983   3.936   3.597   3.495 -0.1625  1.2925  1.5634
 4328SOL    HW212984   3.895   3.508   3.610 -0.8470 -0.7833 -0.2115
 4329SOL     OW12985   3.581   3.566   1.728  0.0504  0.6969  0.2032
 4329SOL    HW112986   3.500   3.515   1.732 -0.4446  1.2518 -1.5677
 4329SOL    HW212987   3.600   3.588   1.819 -1.6417  0.3213  0.6899
 4330SOL     OW12988   3.306   5.452   0.557  0.2220  0.4191 -0.1616
 4330SOL    HW112989   3.308   5.497   0.473  1.0740  0.2198 -0.2599
 4330SOL    HW212990   3.304   5.523   0.622  1.4185  0.6192 -0.3217
 4331SOL     OW12991   2.120   0.496   2.562  0.0667 -0.6920 -0.3056
 4331SOL    HW112992   2.032   0.479   2.594 -0.4744 -0.5988 -1.6859
 4331SOL    HW212993   2.138   0.586   2.590  0.0740 -0.9836  0.6911
 4332SOL     OW12994   1.216   3.280   3.794  0.1145  0.6324 -0.8249
 4332SOL    HW112995   1.290   3.229   3.763  0.0670 -0.7113  1.1460
 4332SOL    HW212996   1.175   3.225   3.861 -1.6294  2.0785 -0.6340
 4333SOL     OW12997   5.592   2.935   3.825 -0.4230  0.2825 -0.1500
 4333SOL    HW112998   5.654   2.887   3.880  0.5414 -0.4850 -1.8301
 4333SOL    HW212999   5.632   3.020   3.812 -0.0591  0.0472 -0.6155
 4334SOL     OW13000   4.701   5.287   3.281 -0.0060 -0.2551 -0.4591
 4334SOL    HW113001   4.739   5.293   3.368 -0.1938  0.0216 -0.3968
 4334SOL    HW213002   4.710   5.194   3.258  2.0273  0.0364 -1.0412
 4335SOL     OW13003   3.343   1.146   1.605 -0.2706 -0.0123  0.1206
 4335SOL    HW113004   3.253   1.175   1.594  0.3755  1.7077 -0.8834
 4335SOL    HW213005   3.358   1.150   1.699 -0.8543  0.9395  0.1847
 4336SOL     OW13006   3.502   4.858   5.068 -0.0031 -0.4006  0.4612
 4336SOL    HW113007   3.521   4.860   4.974 -0.7406  1.6552  0.3159
 4336SOL    HW213008   3.584   4.883   5.110  0.2060 -0.8924  0.3520
 4337SOL     OW13009   3.873   1.482   4.535  0.2228  0.0836  0.1111
 4337SOL    HW113010   3.961   1.492   4.500  0.0433  1.9895  0.0735
 4337SOL    HW213011   3.843   1.397   4.503  2.0093 -0.5748  0.0920
 4338SOL     OW13012   2.810   0.112   1.841  0.6569  0.7732 -0.2145
 4338SOL    HW113013   2.791   0.051   1.769 -0.2313 -0.6767  1.1612
 4338SOL    HW213014   2.869   0.176   1.803  2.5078 -1.5303 -1.5075
 4339SOL     OW13015   4.988   0.291   4.148 -0.1744  0.2207 -0.2969
 4339SOL    HW113016   4.928   0.261   4.216  1.9654 -1.9538  0.8056
 4339SOL    HW213017   5.001   0.384   4.166  0.9753 -0.4373  2.9251
 4340SOL     OW13018   4.870   1.640   2.266  0.8649  0.4857 -0.3697
 4340SOL    HW113019   4.918   1.672   2.190  1.1370  1.8076  0.3252
 4340SOL    HW213020   4.895   1.699   2.337  1.3895 -1.3246  1.0059
 4341SOL     OW13021   1.301   3.562   2.478 -0.7375  0.6263 -0.5683
 4341SOL    HW113022   1.371   3.555   2.543  0.6708  1.5842 -1.8876
 4341SOL    HW213023   1.262   3.647   2.494 -1.2149  0.3471 -0.2207
 4342SOL     OW13024   4.555   4.799   3.274 -0.1391 -0.3692 -0.0400
 4342SOL    HW113025   4.524   4.877   3.228 -0.4107 -0.0332  0.7113
 4342SOL    HW213026   4.650   4.799   3.259  0.1557  1.1853  1.5575
 4343SOL     OW13027   0.690   0.993   3.013  0.0063 -0.2352 -0.2475
 4343SOL    HW113028   0.757   1.054   3.043  0.0815 -0.8115  0.8288
 4343SOL    HW213029   0.738   0.928   2.961 -0.1946  1.0368 -2.1015
 4344SOL     OW13030   0.009   2.758   3.717  0.5259 -0.2894 -0.1946
 4344SOL    HW113031  -0.072   2.717   3.687  0.6160  0.7294 -1.9627
 4344SOL    HW213032   0.068   2.684   3.734 -0.7574 -1.0514  1.2412
 4345SOL     OW13033   2.233   2.024   2.842 -0.0685  0.1258  0.1974
 4345SOL    HW113034   2.283   2.074   2.778  2.3122 -1.0873  0.9753
 4345SOL    HW213035   2.209   1.943   2.796 -0.6180  0.3439  0.0882
 4346SOL     OW13036   5.121   5.203   3.484 -0.2750  0.6648 -0.3730
 4346SOL    HW113037   5.179   5.269   3.447 -0.4475  0.7687 -0.4580
 4346SOL    HW213038   5.035   5.245   3.486 -0.2703  0.6563  0.1252
 4347SOL     OW13039   2.914   5.869   3.450  0.3517  0.1007  0.2702
 4347SOL    HW113040   2.847   5.937   3.444  0.7450  0.5704  1.0734
 4347SOL    HW213041   2.894   5.822   3.531  0.0274 -0.8108 -0.3246
 4348SOL     OW13042   1.270   1.424   4.380  0.6004 -0.0878 -0.0604
 4348SOL    HW113043   1.250   1.480   4.455  1.1633  0.6053 -0.4197
 4348SOL    HW213044   1.188   1.376   4.363  0.7353 -0.9394  1.5652
 4349SOL     OW13045   5.813   1.923   0.955  0.4648  0.4449  0.1491
 4349SOL    HW113046   5.799   1.962   1.041 -0.9262  1.8255 -0.6453
 4349SOL    HW213047   5.890   1.868   0.965  0.7364  1.1251  2.0936
 4350SOL     OW13048   1.432   5.343   3.161 -0.0427 -0.0726 -0.3918
 4350SOL    HW113049   1.339   5.359   3.172 -0.2695 -0.7301 -1.2601
 4350SOL    HW213050   1.474   5.420   3.199 -0.9218  0.0855  0.2854
 4351SOL     OW13051   1.534   0.888   4.255  0.0629  0.2050  1.0967
 4351SOL    HW113052   1.497   0.896   4.343  1.8790  0.7165  1.8759
 4351SOL    HW213053   1.546   0.979   4.227  0.0573  0.0438  0.5743
 4352SOL     OW13054   5.918   0.275   3.794 -0.1627  0.0548  0.2371
 4352SOL    HW113055   6.000   0.230   3.773  0.7761  2.1471 -0.9407
 4352SOL    HW213056   5.861   0.257   3.720 -0.4228 -0.5693  0.5804
 4353SOL     OW13057   3.392   3.530   0.928  0.0300  0.7696 -0.2009
 4353SOL    HW113058   3.328   3.592   0.964  0.7506  1.5077 -0.1509
 4353SOL    HW213059   3.426   3.483   1.004 -0.8538 -0.0367 -0.2852
 4354SOL     OW13060   3.362   3.698   5.090 -0.2099 -0.3936  0.5673
 4354SOL    HW113061   3.329   3.618   5.048  1.5322 -0.5387 -0.6134
 4354SOL    HW213062   3.289   3.760   5.083 -0.7489 -1.1308 -0.7114
 4355SOL     OW13063   3.716   5.428   5.574 -0.3062 -0.1752 -0.7883
 4355SOL    HW113064   3.740   5.515   5.607  0.8954 -0.5756 -0.5525
 4355SOL    HW213065   3.741   5.430   5.482 -1.9509  0.3171 -1.2519
 4356SOL     OW13066   4.915   3.019   0.324  0.9861 -0.0601  0.3798
 4356SOL    HW113067   4.871   3.065   0.252 -0.3639 -0.0200  1.1833
 4356SOL    HW213068   4.968   3.086   0.366  0.6597  0.2626  0.2861
 4357SOL     OW13069   2.013   2.659   0.436  0.2252 -0.1091  0.3241
 4357SOL    HW113070   1.954   2.610   0.493 -0.1260 -1.0548 -0.7924
 4357SOL    HW213071   1.955   2.694   0.368  0.7950 -0.1485 -0.1917
 4358SOL     OW13072   5.340   0.589   2.873 -0.2653  0.1500  0.2306
 4358SOL    HW113073   5.296   0.602   2.790 -0.9993  1.5745  0.8029
 4358SOL    HW213074   5.299   0.511   2.911 -0.2312 -0.2421 -0.5361
 4359SOL     OW13075   4.247   5.389   0.881 -0.4949 -0.6531 -0.6470
 4359SOL    HW113076   4.253   5.474   0.839 -1.3198  1.0992  2.4991
 4359SOL    HW213077   4.159   5.358   0.860 -2.5129  2.0813  2.6925
 4360SOL     OW13078   1.943   2.327   4.200  0.4449  0.4305  0.3328
 4360SOL    HW113079   1.856   2.344   4.237  0.0928 -1.9001  0.6997
 4360SOL    HW213080   1.999   2.312   4.277  0.6002 -0.5523  0.0315
 4361SOL     OW13081   0.588   4.538   5.861 -0.1644  0.2812 -0.2410
 4361SOL    HW113082   0.539   4.617   5.881  0.1850  0.6819 -0.9345
 4361SOL    HW213083   0.561   4.515   5.772  1.7727  1.2022 -1.1360
 4362SOL     OW13084   2.332   5.377   1.896  0.3855  0.0671  0.5104
 4362SOL    HW113085   2.258   5.404   1.951 -0.2630 -0.3168 -0.1668
 4362SOL    HW213086   2.310   5.407   1.808  0.4337 -1.1631  0.0587
 4363SOL     OW13087   2.814   0.241   0.207  0.3860  0.0228 -0.9419
 4363SOL    HW113088   2.735   0.267   0.254  0.1617 -0.2914 -1.1430
 4363SOL    HW213089   2.886   0.261   0.267  0.1370  0.1215 -0.6785
 4364SOL     OW13090   3.413   0.475   3.483  0.0301  0.3463  0.2786
 4364SOL    HW113091   3.453   0.443   3.564  1.3534 -0.7440 -0.7544
 4364SOL    HW213092   3.417   0.570   3.490  0.0017  0.2690  1.5424
 4365SOL     OW13093   0.977   0.667   5.358  0.2767  0.0992  0.3202
 4365SOL    HW113094   0.882   0.661   5.355  0.2254  0.8734 -0.0687
 4365SOL    HW213095   0.999   0.659   5.450 -0.1713 -0.0507  0.4155
 4366SOL     OW13096   2.805   5.717   1.742 -0.6609  0.4831 -0.3634
 4366SOL    HW113097   2.795   5.811   1.726  0.3341  0.8225  0.8214
 4366SOL    HW213098   2.897   5.706   1.765 -1.3109 -0.2921  2.2670
 4367SOL     OW13099   2.094   1.401   0.622 -0.3809  0.5848  0.3388
 4367SOL    HW113100   2.167   1.340   0.615 -0.5592  0.3511  0.4943
 4367SOL    HW213101   2.045   1.388   0.540 -1.4153 -0.7841  1.1410
 4368SOL     OW13102   1.682   5.039   5.065 -0.0519  0.3774  0.6178
 4368SOL    HW113103   1.629   5.015   4.989  0.9249 -1.5245  0.4628
 4368SOL    HW213104   1.752   5.094   5.029  0.4372 -0.5603  0.0958
 4369SOL     OW13105   5.278   3.789   3.441 -0.0740 -0.1440 -0.4695
 4369SOL    HW113106   5.259   3.863   3.499  0.9818  0.1162 -0.4222
 4369SOL    HW213107   5.228   3.716   3.477  0.6481 -0.0131  0.8572
 4370SOL     OW13108   1.986   3.097   3.713  0.4393  0.0272 -0.4935
 4370SOL    HW113109   1.915   3.109   3.775  0.2648 -0.0817 -0.6700
 4370SOL    HW213110   2.053   3.161   3.739  0.4657 -0.1764 -0.0555
 4371SOL     OW13111   1.617   0.983   5.384 -0.0527  0.1246 -0.2720
 4371SOL    HW113112   1.694   0.932   5.409  0.5357  1.1939  0.1812
 4371SOL    HW213113   1.557   0.973   5.458  0.4223  0.7779  0.2201
 4372SOL     OW13114   1.713   5.252   5.487  0.4278  0.4722  0.3215
 4372SOL    HW113115   1.740   5.344   5.483 -1.5137  1.0414 -1.2966
 4372SOL    HW213116   1.672   5.244   5.573 -1.4771  1.8216 -0.3903
 4373SOL     OW13117   2.398   1.329   3.328 -0.5104  0.7232  0.4439
 4373SOL    HW113118   2.375   1.361   3.241  0.8574 -0.1437 -0.2767
 4373SOL    HW213119   2.388   1.234   3.322  0.7298  0.5465  0.8433
 4374SOL     OW13120   4.605   5.932   5.270 -0.5557  0.1119  0.1738
 4374SOL    HW113121   4.618   5.986   5.192 -1.3623 -1.1823 -0.9174
 4374SOL    HW213122   4.693   5.901   5.292 -0.0902  1.7722  0.7972
 4375SOL     OW13123   2.810   4.177   4.577 -0.1705  0.0559 -0.0740
 4375SOL    HW113124   2.767   4.218   4.502 -1.0773 -1.0160 -0.1716
 4375SOL    HW213125   2.878   4.122   4.538 -0.6565 -0.5184 -0.1202
 4376SOL     OW13126   1.408   0.836   4.528 -0.2041  0.0472  0.1678
 4376SOL    HW113127   1.364   0.757   4.496  0.5319 -0.7500  1.0906
 4376SOL    HW213128   1.340   0.884   4.576 -0.6204 -0.0822 -0.2908
 4377SOL     OW13129   1.563   2.258   5.453 -0.0279  0.4572  0.2604
 4377SOL    HW113130   1.516   2.276   5.535 -0.8551 -0.5873  0.0481
 4377SOL    HW213131   1.591   2.343   5.422 -0.7059  0.9880  1.0511
 4378SOL     OW13132   1.143   4.146   4.695 -0.2547 -0.0523  0.4998
 4378SOL    HW113133   1.214   4.109   4.749 -0.5294 -0.6558  0.4600
 4378SOL    HW213134   1.135   4.236   4.725 -1.9687 -0.9853  3.1738
 4379SOL     OW13135   1.784   5.765   3.186 -0.2266 -0.7137  0.0169
 4379SOL    HW113136   1.743   5.799   3.106 -0.1341  0.1871  0.3376
 4379SOL    HW213137   1.816   5.843   3.231 -0.2175 -1.2239  0.9048
 4380SOL     OW13138   2.995   1.622   2.766  0.0879  0.1751 -0.1028
 4380SOL    HW113139   2.907   1.636   2.732 -0.0874 -1.7105 -0.5383
 4380SOL    HW213140   3.053   1.664   2.702 -0.4436  0.6963 -0.2478
 4381SOL     OW13141   2.707   5.510   4.199  0.5078  0.1890  0.3782
 4381SOL    HW113142   2.664   5.550   4.274 -0.3680 -1.3794  0.7593
 4381SOL    HW213143   2.799   5.538   4.206  0.3050  0.6010  1.6434
 4382SOL     OW13144   1.014   0.878   3.543 -0.0290 -0.2374  0.0076
 4382SOL    HW113145   1.037   0.793   3.504 -1.7413 -1.4020  1.3908
 4382SOL    HW213146   0.940   0.908   3.490  0.3153  0.2164 -0.2212
 4383SOL     OW13147   4.295   0.752   2.868 -0.0060 -0.3835  0.0060
 4383SOL    HW113148   4.253   0.829   2.907  0.3419 -0.2913  0.2057
 4383SOL    HW213149   4.349   0.716   2.939  1.7186  0.5626 -0.7561
 4384SOL     OW13150   0.218   3.296   0.671 -0.2492 -0.4715  0.1413
 4384SOL    HW113151   0.281   3.225   0.658 -0.5239 -0.3853 -1.9295
 4384SOL    HW213152   0.269   3.365   0.714  0.2736 -1.5249  1.2606
 4385SOL     OW13153   1.327   5.350   3.913 -0.1245  0.1995 -0.7917
 4385SOL    HW113154   1.280   5.416   3.862 -0.2240  0.7252 -0.0518
 4385SOL    HW213155   1.296   5.364   4.003  0.6337 -0.1707 -0.4670
 4386SOL     OW13156   4.914   4.207   5.158 -0.8913 -0.3844 -0.4624
 4386SOL    HW113157   4.984   4.237   5.216 -0.8886  0.7953 -1.0388
 4386SOL    HW213158   4.848   4.276   5.162 -1.1876 -0.6008 -1.3437
 4387SOL     OW13159   2.136   4.988   1.313  0.3017 -0.1005 -0.0178
 4387SOL    HW113160   2.191   5.038   1.374  0.4255  0.0663 -0.2610
 4387SOL    HW213161   2.050   5.030   1.318  0.4702  0.2997 -0.4069
 4388SOL     OW13162   0.390   4.761   3.430 -0.1731 -0.0405 -0.3109
 4388SOL    HW113163   0.375   4.789   3.520  0.0605 -0.9229  0.0079
 4388SOL    HW213164   0.457   4.693   3.436  0.7128  0.7102 -1.2641
 4389SOL     OW13165   4.834   5.875   0.087  0.0693 -0.2488 -0.3472
 4389SOL    HW113166   4.886   5.940   0.134 -0.1602  0.5407 -1.1637
 4389SOL    HW213167   4.759   5.857   0.144  1.1217 -1.2795  0.7719
 4390SOL     OW13168   5.590   4.337   5.712 -0.6284 -0.0984  0.1707
 4390SOL    HW113169   5.604   4.394   5.788 -0.1883  1.4108 -0.9821
 4390SOL    HW213170   5.676   4.332   5.670 -0.9462 -0.6018 -0.4270
 4391SOL     OW13171   2.075   3.331   5.450  0.1586  0.1216  1.1093
 4391SOL    HW113172   2.088   3.411   5.500 -0.4026  0.7580  0.2463
 4391SOL    HW213173   2.065   3.263   5.517  2.2427  0.4663  1.8640
 4392SOL     OW13174   2.762   4.499   1.218  0.1759 -0.2875  0.2122
 4392SOL    HW113175   2.815   4.503   1.139  0.6513 -0.4208  0.5218
 4392SOL    HW213176   2.787   4.577   1.268 -0.4811  0.0658  0.0151
 4393SOL     OW13177   1.305   4.894   1.815  0.2712 -0.0850  0.2310
 4393SOL    HW113178   1.351   4.882   1.898 -0.8055  0.2539  0.8883
 4393SOL    HW213179   1.285   4.987   1.811  1.5624  0.1860 -1.1055
 4394SOL     OW13180   3.094   0.900   5.389  0.3103 -0.4088 -0.0341
 4394SOL    HW113181   3.162   0.953   5.347  0.9110 -0.9872  0.1962
 4394SOL    HW213182   3.142   0.841   5.447 -0.4952  0.4632  1.6099
 4395SOL     OW13183   5.863   0.338   2.799  0.4018 -0.1707  0.3899
 4395SOL    HW113184   5.772   0.366   2.799  0.8504  1.4012  0.1883
 4395SOL    HW213185   5.892   0.350   2.709  0.7394 -0.9431  0.3879
 4396SOL     OW13186   1.535   5.621   5.330  0.1009 -0.0629  0.3611
 4396SOL    HW113187   1.489   5.540   5.351 -1.8220  0.4557 -1.5094
 4396SOL    HW213188   1.494   5.652   5.250  1.5359  2.2045  0.4117
 4397SOL     OW13189   0.071   0.044   0.759  0.1291 -0.2157 -0.0382
 4397SOL    HW113190  -0.013   0.065   0.800  0.9953 -1.1107  2.3924
 4397SOL    HW213191   0.099   0.126   0.719 -0.6824  0.8461  1.4409
 4398SOL     OW13192   0.806   5.368   0.446  0.0486  0.1066 -0.3414
 4398SOL    HW113193   0.764   5.453   0.460 -0.5418 -0.2480  0.1271
 4398SOL    HW213194   0.748   5.306   0.490 -0.0166 -0.6493 -1.4360
 4399SOL     OW13195   3.723   5.547   1.071 -0.1928 -0.0695 -0.2636
 4399SOL    HW113196   3.712   5.557   0.977  0.0027  0.2490 -0.2551
 4399SOL    HW213197   3.792   5.481   1.081  0.2457  0.3681 -0.3539
 4400SOL     OW13198   3.402   1.230   0.512 -0.0499 -0.4702  0.6602
 4400SOL    HW113199   3.387   1.136   0.509 -1.0028 -0.4173  2.3791
 4400SOL    HW213200   3.334   1.263   0.572  0.1505  1.3309 -0.0435
 4401SOL     OW13201   3.741   4.560   4.728 -0.0162 -0.1231 -0.1791
 4401SOL    HW113202   3.671   4.555   4.663 -1.3305 -1.5713  1.2357
 4401SOL    HW213203   3.695   4.553   4.812  1.7448  0.1610  0.8408
 4402SOL     OW13204   4.253   2.628   3.569 -0.8189 -0.0959  0.6460
 4402SOL    HW113205   4.241   2.643   3.663 -0.2242  1.4061  0.5179
 4402SOL    HW213206   4.323   2.690   3.544 -2.4078  1.0680 -1.1737
 4403SOL     OW13207   5.106   3.761   0.584 -0.3704  0.6844 -0.4019
 4403SOL    HW113208   5.118   3.853   0.563  0.7512  0.1963 -2.0285
 4403SOL    HW213209   5.089   3.718   0.500 -1.4552 -0.5310  0.3830
 4404SOL     OW13210   2.846   4.739   2.195  0.5093 -0.3775  0.3293
 4404SOL    HW113211   2.754   4.752   2.173  0.5665  1.5341  1.0058
 4404SOL    HW213212   2.863   4.648   2.174 -0.4355  0.1929 -3.7377
 4405SOL     OW13213   3.658   4.496   5.441 -0.1645 -0.4811  0.1288
 4405SOL    HW113214   3.593   4.426   5.450  0.6794 -1.4092 -0.8129
 4405SOL    HW213215   3.735   4.453   5.404  0.4441  0.9155 -0.2915
 4406SOL     OW13216   5.775   5.128   2.404 -0.0983  0.3207  0.2277
 4406SOL    HW113217   5.752   5.205   2.353  1.9650  0.7092 -0.2252
 4406SOL    HW213218   5.733   5.055   2.359  0.4334  0.8386 -1.1490
 4407SOL     OW13219   4.054   4.535   0.247 -0.7612  0.2462  1.0305
 4407SOL    HW113220   4.003   4.601   0.293  2.2902  3.1552  0.6726
 4407SOL    HW213221   4.145   4.560   0.262  0.5397 -2.1375 -1.7039
 4408SOL     OW13222   4.902   5.646   0.354 -0.7318 -0.3829 -0.3040
 4408SOL    HW113223   4.882   5.610   0.441  2.5260  1.3294  1.3203
 4408SOL    HW213224   4.819   5.685   0.326 -1.5608  0.3888  2.7815
 4409SOL     OW13225   2.437   0.196   1.400  0.0239  0.2532 -0.4725
 4409SOL    HW113226   2.420   0.135   1.329  0.8232  0.4748 -0.8687
 4409SOL    HW213227   2.396   0.278   1.373 -0.8229 -0.0262 -0.0601
 4410SOL     OW13228   3.345   3.959   5.379  0.8583  0.6822  0.7238
 4410SOL    HW113229   3.380   3.870   5.388  0.1376  0.5017  2.0150
 4410SOL    HW213230   3.386   3.993   5.300  1.2439 -0.7566  0.2722
 4411SOL     OW13231   5.523   5.428   0.621 -0.2622  0.7740 -0.1113
 4411SOL    HW113232   5.450   5.485   0.643  1.7127  1.8765  4.8717
 4411SOL    HW213233   5.600   5.485   0.623  1.1894 -1.0048 -1.2607
 4412SOL     OW13234   5.397   1.415   0.479  0.3330  0.8593 -0.1161
 4412SOL    HW113235   5.408   1.421   0.385 -0.8440 -0.6065 -0.3932
 4412SOL    HW213236   5.305   1.437   0.494  0.8868  2.6785  0.9061
 4413SOL     OW13237   5.724   3.968   5.514 -0.1602  0.4056  0.3372
 4413SOL    HW113238   5.788   3.995   5.580  3.2309  0.5616 -2.7542
 4413SOL    HW213239   5.689   4.050   5.479  1.1320  0.5103 -0.7859
 4414SOL     OW13240   5.356   1.323   5.950 -0.0856 -0.4248 -0.1739
 4414SOL    HW113241   5.358   1.253   5.885  1.3888 -3.6597  3.0110
 4414SOL    HW213242   5.272   1.311   5.995 -1.9925  2.9671 -2.3281
 4415SOL     OW13243   0.860   2.595   1.873  0.1888  0.2133  0.0418
 4415SOL    HW113244   0.798   2.545   1.820 -0.4075 -1.2569  2.0364
 4415SOL    HW213245   0.810   2.623   1.949  1.5928  0.2545  0.9810
 4416SOL     OW13246   0.341   1.651   2.100  0.5456  0.2162 -0.1239
 4416SOL    HW113247   0.266   1.592   2.107  0.0047  0.9616  0.3940
 4416SOL    HW213248   0.379   1.652   2.187  0.8665  0.2398 -0.2619
 4417SOL     OW13249   1.841   1.643   0.418 -0.2416 -0.3693 -0.0159
 4417SOL    HW113250   1.922   1.623   0.371  0.4914 -0.6815  1.3474
 4417SOL    HW213251   1.772   1.613   0.359  0.6087  0.1260 -1.3069
 4418SOL     OW13252   4.060   5.834   3.581 -0.3886 -0.4157 -0.4838
 4418SOL    HW113253   4.044   5.822   3.675 -3.1839 -1.5947 -1.0107
 4418SOL    HW213254   4.050   5.928   3.567  0.7624 -0.1183  0.4547
 4419SOL     OW13255   1.067   3.938   4.184  0.5169  0.2420  0.0068
 4419SOL    HW113256   1.114   3.857   4.204 -0.0841  0.2155  1.4772
 4419SOL    HW213257   1.135   3.999   4.156  1.3455 -0.0126  1.3710
 4420SOL     OW13258   3.439   1.900   0.873  0.1399  0.2500 -0.6722
 4420SOL    HW113259   3.450   1.992   0.848  0.6741  0.1493 -0.8302
 4420SOL    HW213260   3.422   1.902   0.967  1.3288  0.4461 -0.4488
 4421SOL     OW13261   4.746   0.359   2.458 -0.3211 -0.0846  0.0726
 4421SOL    HW113262   4.726   0.448   2.431  1.3778  0.3467  0.1263
 4421SOL    HW213263   4.683   0.304   2.411 -1.0434  1.0943 -0.3581
 4422SOL     OW13264   1.429   5.753   1.192 -0.8049 -0.0128  0.1455
 4422SOL    HW113265   1.438   5.766   1.097 -0.8994  0.1614  0.1612
 4422SOL    HW213266   1.443   5.659   1.204 -0.9700 -0.0666 -0.0643
 4423SOL     OW13267   4.884   2.025   0.650 -0.1625  0.1046 -0.4820
 4423SOL    HW113268   4.830   2.099   0.623  0.4877  0.2716 -1.3369
 4423SOL    HW213269   4.821   1.961   0.685 -1.1925 -0.5166 -3.1856
 4424SOL     OW13270   0.789   1.187   0.324  0.4447  0.3191  0.0804
 4424SOL    HW113271   0.712   1.202   0.270  1.0822  0.7074 -0.7579
 4424SOL    HW213272   0.761   1.126   0.392 -0.6328  0.5985 -0.1057
 4425SOL     OW13273   2.712   5.522   1.564 -0.1551  0.2955  0.2308
 4425SOL    HW113274   2.775   5.557   1.501  0.9870 -0.6212  0.8325
 4425SOL    HW213275   2.718   5.580   1.639  0.1709  0.0590  0.3896
 4426SOL     OW13276   3.033   2.901   1.310  0.3590  0.5735  0.0093
 4426SOL    HW113277   2.976   2.881   1.236  0.2337 -0.0007  0.2506
 4426SOL    HW213278   3.038   2.818   1.359 -2.4484  1.7266  2.6037
 4427SOL     OW13279   5.028   1.491   3.891 -0.0961 -0.0043 -0.1617
 4427SOL    HW113280   5.054   1.543   3.815 -0.3454  1.5509  0.7803
 4427SOL    HW213281   5.038   1.400   3.862  2.0338  0.5251 -1.2985
 4428SOL     OW13282   1.113   0.375   0.526  0.3761 -0.4306  0.5930
 4428SOL    HW113283   1.184   0.348   0.468  1.0527  1.1632  0.6098
 4428SOL    HW213284   1.054   0.426   0.470 -0.0208 -0.5604  0.8829
 4429SOL     OW13285   4.779   1.883   4.751 -0.2796  0.5329  0.0189
 4429SOL    HW113286   4.795   1.807   4.806  0.9604  1.1220  0.5057
 4429SOL    HW213287   4.866   1.911   4.722 -0.7866  1.2151 -0.9166
 4430SOL     OW13288   3.161   1.674   2.526 -0.1387  0.3992 -0.3333
 4430SOL    HW113289   3.232   1.617   2.555  0.0295  0.9511  0.3689
 4430SOL    HW213290   3.204   1.743   2.475 -0.0625  1.1392  0.6938
 4431SOL     OW13291   4.083   2.419  -0.008 -0.1014  0.2608 -0.3115
 4431SOL    HW113292   4.127   2.374   0.064  0.8440  1.6921  0.0519
 4431SOL    HW213293   4.011   2.466   0.035  1.2728  2.2105 -0.0251
 4432SOL     OW13294   5.205   0.158   2.412 -0.1652 -0.2233  0.4836
 4432SOL    HW113295   5.123   0.171   2.460 -0.3621  1.1526 -0.1778
 4432SOL    HW213296   5.177   0.143   2.321  0.2611 -1.3191  0.5236
 4433SOL     OW13297   4.494   0.229   2.339  0.3985  0.4254 -0.2957
 4433SOL    HW113298   4.517   0.143   2.303  2.4639  0.1770  1.3810
 4433SOL    HW213299   4.428   0.210   2.405  1.8855 -0.1438  1.0984
 4434SOL     OW13300   2.819   0.543   4.195  0.0487 -0.7260 -1.1614
 4434SOL    HW113301   2.862   0.459   4.212 -1.0597 -1.2398 -0.7872
 4434SOL    HW213302   2.818   0.550   4.099  0.1512 -1.1341 -1.1939
 4435SOL     OW13303   3.453   0.053   4.990  0.3675  0.4441 -0.6467
 4435SOL    HW113304   3.388   0.060   4.920  1.1546  0.0596 -1.4381
 4435SOL    HW213305   3.412  -0.003   5.055 -0.7173  1.5074 -0.3887
 4436SOL     OW13306   3.121   1.590   0.499  0.1568 -0.3374  0.1266
 4436SOL    HW113307   3.027   1.608   0.489  0.0420 -0.5988  0.6871
 4436SOL    HW213308   3.161   1.676   0.514 -0.1579 -0.3376  1.0675
 4437SOL     OW13309   4.554   1.731   0.126  0.3303  0.0186  0.5041
 4437SOL    HW113310   4.569   1.642   0.094 -0.2936  0.4844 -1.2240
 4437SOL    HW213311   4.531   1.720   0.218  1.0528 -1.5270  0.5344
 4438SOL     OW13312   4.484   2.106   0.316 -0.0974 -0.5411  0.0742
 4438SOL    HW113313   4.458   2.191   0.350  0.6053 -0.4269  0.3224
 4438SOL    HW213314   4.456   2.108   0.224 -1.3727 -0.5950  0.4395
 4439SOL     OW13315   1.141   3.774   0.227 -0.2401 -0.4945  0.3591
 4439SOL    HW113316   1.151   3.867   0.207  0.2678  0.1614  3.2011
 4439SOL    HW213317   1.059   3.749   0.185 -0.0711  1.0554 -0.9856
 4440SOL     OW13318   2.999   2.219   0.184 -0.4055  0.0762 -0.2171
 4440SOL    HW113319   3.026   2.158   0.115 -1.2707 -1.2145  0.5307
 4440SOL    HW213320   2.907   2.237   0.164 -0.1903  1.0590 -0.3530
 4441SOL     OW13321   3.603   5.575   2.504 -0.9727 -0.0778  0.1750
 4441SOL    HW113322   3.507   5.570   2.503 -0.9638 -0.2274 -0.3971
 4441SOL    HW213323   3.625   5.622   2.424 -0.5026 -1.4716 -0.5396
 4442SOL     OW13324   0.594   2.954   4.445  0.1937 -0.4425  0.3157
 4442SOL    HW113325   0.687   2.932   4.455 -0.0227 -1.0178  1.2279
 4442SOL    HW213326   0.549   2.869   4.451 -0.5936  0.0685  2.7514
 4443SOL     OW13327   1.136   1.960   4.214 -0.4739 -0.0014  0.1252
 4443SOL    HW113328   1.088   1.948   4.296 -0.8430 -1.1468 -0.2448
 4443SOL    HW213329   1.072   1.938   4.146  0.2328 -0.4052 -0.4156
 4444SOL     OW13330   5.802   3.471   0.361 -0.0589 -0.1101  0.2838
 4444SOL    HW113331   5.830   3.437   0.277  0.4114  2.6092 -0.7662
 4444SOL    HW213332   5.882   3.477   0.413  0.3440  1.6524 -0.4533
 4445SOL     OW13333   4.884   1.267   4.175 -0.6844 -0.5731  0.5971
 4445SOL    HW113334   4.805   1.312   4.145  0.4804  0.3101 -1.3529
 4445SOL    HW213335   4.929   1.332   4.229 -0.9320 -0.8337  1.1257
 4446SOL     OW13336   3.112   0.333   0.709 -0.3394 -0.8530  0.4990
 4446SOL    HW113337   3.050   0.309   0.640 -1.1896  0.8449  0.6302
 4446SOL    HW213338   3.150   0.249   0.737  0.2838 -1.5833 -2.2347
 4447SOL     OW13339   1.662   1.889   1.060  0.6005  0.1770 -0.0061
 4447SOL    HW113340   1.682   1.964   1.004  1.5063  0.0661  0.1554
 4447SOL    HW213341   1.636   1.927   1.144  0.6992  0.3153 -0.0387
 4448SOL     OW13342   3.858   0.110   2.764  0.2170  0.4708 -0.7579
 4448SOL    HW113343   3.845   0.038   2.703  0.8023  0.3297 -0.7250
 4448SOL    HW213344   3.771   0.132   2.795  0.0896 -0.6027 -0.3339
 4449SOL     OW13345   0.759   3.173   1.470  0.3399  0.4089  0.4788
 4449SOL    HW113346   0.737   3.081   1.457 -0.4852  0.7576 -0.8530
 4449SOL    HW213347   0.677   3.213   1.500  0.1421  1.0422 -0.8416
 4450SOL     OW13348   1.510   0.313   0.181  1.0115  0.4694 -0.2374
 4450SOL    HW113349   1.592   0.361   0.191  2.1799 -0.7611 -2.9186
 4450SOL    HW213350   1.511   0.282   0.091 -1.0354 -2.1126  0.4940
 4451SOL     OW13351   2.409   2.298   0.594  0.6664  0.3102  0.3850
 4451SOL    HW113352   2.345   2.280   0.525  1.4641  1.8850 -0.8340
 4451SOL    HW213353   2.375   2.251   0.670 -0.2710 -1.4719 -1.0314
 4452SOL     OW13354   0.531   0.841   5.967 -0.3274 -0.2486 -0.4666
 4452SOL    HW113355   0.550   0.769   6.027 -2.6621 -0.0731  0.5835
 4452SOL    HW213356   0.605   0.901   5.978  0.1329 -1.0326  0.9720
 4453SOL     OW13357   5.410   0.887   1.612 -0.8315  0.5594 -0.2692
 4453SOL    HW113358   5.429   0.964   1.666 -2.4662  0.6693  0.2169
 4453SOL    HW213359   5.315   0.876   1.619 -0.7062 -1.1533 -0.8245
 4454SOL     OW13360   4.612   1.873   0.953  0.3710  0.2750 -0.0383
 4454SOL    HW113361   4.597   1.785   0.988  0.7231 -0.0190 -0.6214
 4454SOL    HW213362   4.665   1.859   0.875 -0.1857  0.9472 -0.5456
 4455SOL     OW13363   0.200   0.530   1.396  0.6145  0.1650 -0.1208
 4455SOL    HW113364   0.260   0.603   1.379  1.2750 -0.1119  0.8738
 4455SOL    HW213365   0.129   0.569   1.446  0.2399  0.3869 -0.8140
 4456SOL     OW13366   0.776   2.928   2.534  0.3324  0.0813 -0.0593
 4456SOL    HW113367   0.859   2.972   2.519  0.3860  0.0001 -0.0013
 4456SOL    HW213368   0.798   2.835   2.539 -0.0261 -0.1773 -2.2032
 4457SOL     OW13369   5.667   0.805   4.740  0.0659 -0.3091 -0.4115
 4457SOL    HW113370   5.609   0.874   4.707  0.6856  1.4259  1.9052
 4457SOL    HW213371   5.742   0.806   4.681  0.3811  1.5250 -0.0223
 4458SOL     OW13372   5.169   1.410   3.097  0.2589  0.2728 -0.9390
 4458SOL    HW113373   5.229   1.485   3.102  0.7619 -0.1104 -1.0710
 4458SOL    HW213374   5.227   1.335   3.080 -0.0329 -0.4397  1.0235
 4459SOL     OW13375   3.366   3.208   4.641  0.1455 -0.0870 -0.7157
 4459SOL    HW113376   3.435   3.273   4.630  0.2683 -0.2391 -0.8438
 4459SOL    HW213377   3.378   3.147   4.569  1.0955 -1.2197  0.3646
 4460SOL     OW13378   2.489   1.308   5.165  0.0491 -0.4065  0.0920
 4460SOL    HW113379   2.411   1.279   5.118 -0.4957  0.9219  0.1484
 4460SOL    HW213380   2.500   1.243   5.235 -1.8462  0.1446  0.9635
 4461SOL     OW13381   5.483   3.565   5.594  0.3408  0.0742  0.3355
 4461SOL    HW113382   5.571   3.527   5.585  0.4580  0.3486  0.2967
 4461SOL    HW213383   5.470   3.611   5.511  0.9919  1.7529  1.1293
 4462SOL     OW13384   5.211   3.724   1.504  0.5460 -0.1837  0.3011
 4462SOL    HW113385   5.288   3.677   1.535  2.3194  2.8234  0.9463
 4462SOL    HW213386   5.216   3.721   1.409 -0.1330 -2.2620  0.2827
 4463SOL     OW13387   4.773   1.210   3.198  0.0103  0.0773  0.0919
 4463SOL    HW113388   4.792   1.226   3.290 -1.6674  1.0263  0.3124
 4463SOL    HW213389   4.680   1.187   3.196  0.2043 -0.7269 -1.2880
 4464SOL     OW13390   4.028   0.950   4.192 -0.3518 -1.0829  0.2444
 4464SOL    HW113391   4.025   0.882   4.124  1.1993 -1.5099  0.5647
 4464SOL    HW213392   3.972   0.917   4.262  0.3567 -2.0199  0.3767
 4465SOL     OW13393   0.084   5.014   2.156 -0.2514  0.0745 -0.6317
 4465SOL    HW113394   0.078   4.987   2.065 -0.6786  0.8959 -0.8630
 4465SOL    HW213395   0.163   4.972   2.189  0.9483  1.2494 -1.9029
 4466SOL     OW13396   2.335   0.798   4.828  0.1879 -0.3314  0.8022
 4466SOL    HW113397   2.400   0.851   4.783 -0.4682 -1.4705 -1.6288
 4466SOL    HW213398   2.254   0.848   4.822 -0.2194 -1.1150 -0.6471
 4467SOL     OW13399   4.185   1.635   2.240 -0.4515  0.4580 -0.4685
 4467SOL    HW113400   4.252   1.601   2.300  0.5838  2.0565 -0.6475
 4467SOL    HW213401   4.118   1.567   2.237  1.8545 -1.9355 -1.4714
 4468SOL     OW13402   5.865   5.629   2.446 -0.2279  0.0825  0.1897
 4468SOL    HW113403   5.815   5.615   2.526  0.7230  3.3834  1.5245
 4468SOL    HW213404   5.956   5.614   2.471  0.1186  1.5365 -0.1248
 4469SOL     OW13405   4.594   1.266   1.521  0.2314 -0.6378 -0.0452
 4469SOL    HW113406   4.541   1.342   1.495 -1.3764 -0.8500  2.3009
 4469SOL    HW213407   4.638   1.294   1.601  1.9787 -1.2451 -0.7520
 4470SOL     OW13408   5.643   1.240   0.375 -0.5119 -0.2639 -0.3165
 4470SOL    HW113409   5.597   1.159   0.397 -1.5303  0.5542  0.7012
 4470SOL    HW213410   5.648   1.287   0.458  1.4596  0.0495 -0.5810
 4471SOL     OW13411   4.659   1.508   4.187 -0.3932  0.3507 -0.4797
 4471SOL    HW113412   4.618   1.568   4.125 -0.2862  1.4007  0.4334
 4471SOL    HW213413   4.635   1.542   4.273  1.6394  0.5137  0.0872
 4472SOL     OW13414   0.543   5.501   3.147 -0.2046 -0.0776 -0.4899
 4472SOL    HW113415   0.593   5.430   3.107 -0.7293 -0.1606 -1.0182
 4472SOL    HW213416   0.538   5.568   3.079 -3.2867 -1.2535 -1.5799
 4473SOL     OW13417   5.041   1.366   5.477  0.2024  0.4564  0.0615
 4473SOL    HW113418   5.007   1.442   5.525 -0.0395  1.2340 -1.2858
 4473SOL    HW213419   5.017   1.383   5.386 -2.8787 -2.8697  0.0570
 4474SOL     OW13420   0.581   1.281   5.227 -0.0054  0.2427  0.0234
 4474SOL    HW113421   0.522   1.350   5.257  0.1525 -0.7198  2.9534
 4474SOL    HW213422   0.524   1.215   5.190 -0.3454  1.0574 -0.9397
 4475SOL     OW13423   5.209   3.310   5.254 -0.1240  0.4471  0.1486
 4475SOL    HW113424   5.249   3.393   5.227 -0.8927  0.0074 -2.6933
 4475SOL    HW213425   5.119   3.333   5.278 -0.7805  0.3558 -1.9877
 4476SOL     OW13426   2.427   2.486   1.725  0.1555 -0.2216  0.2042
 4476SOL    HW113427   2.391   2.524   1.804  0.3863 -1.2379  0.8207
 4476SOL    HW213428   2.406   2.549   1.656  0.3948  0.9125  1.1439
 4477SOL     OW13429   3.685   0.061   0.496  0.2055  0.0701  0.4707
 4477SOL    HW113430   3.620   0.131   0.493  2.0052  1.8313 -1.9584
 4477SOL    HW213431   3.697   0.043   0.589 -3.8776 -0.6030  1.0382
 4478SOL     OW13432   5.662   3.304   0.703 -0.4420  0.1906 -0.3148
 4478SOL    HW113433   5.756   3.304   0.720 -0.6648 -0.4583  1.0133
 4478SOL    HW213434   5.655   3.318   0.608  0.9792  0.3204 -0.4202
 4479SOL     OW13435   4.386   3.715   4.578  0.7121  0.1932 -0.4998
 4479SOL    HW113436   4.295   3.719   4.605  0.6227  1.7068 -0.9114
 4479SOL    HW213437   4.385   3.669   4.494  0.7724 -2.8578  1.0733
 4480SOL     OW13438   3.213   3.751   1.680  0.1858 -0.4974  0.5199
 4480SOL    HW113439   3.204   3.656   1.678  2.4863 -0.7992  1.0945
 4480SOL    HW213440   3.237   3.771   1.770 -1.0575  0.7398  0.6012
 4481SOL     OW13441   5.415   0.276   1.560 -0.2778 -0.5442 -0.1933
 4481SOL    HW113442   5.343   0.220   1.530 -1.0808  0.4237 -0.1500
 4481SOL    HW213443   5.458   0.304   1.479  0.0946 -1.1764 -0.2169
 4482SOL     OW13444   4.699   1.082   1.021  0.0869 -0.0359  0.2592
 4482SOL    HW113445   4.736   1.114   1.103 -1.3958 -0.3423  1.0672
 4482SOL    HW213446   4.705   0.987   1.028 -1.6073 -0.1327  0.7982
 4483SOL     OW13447   3.572   0.501   3.116 -0.5532  0.0105 -0.0117
 4483SOL    HW113448   3.620   0.562   3.060 -0.7824 -1.5634 -2.0656
 4483SOL    HW213449   3.481   0.531   3.112 -0.4914  0.1916 -0.0810
 4484SOL     OW13450   2.961   5.747   5.912 -0.1048 -0.3482 -0.0705
 4484SOL    HW113451   3.046   5.773   5.877  0.0052 -0.1848  0.3040
 4484SOL    HW213452   2.963   5.776   6.004 -0.2966 -0.9613  0.1331
 4485SOL     OW13453   5.230   0.907   1.307 -0.0375 -0.1695 -0.6672
 4485SOL    HW113454   5.320   0.933   1.285  0.6890 -1.2936  0.7448
 4485SOL    HW213455   5.223   0.817   1.276 -1.0239  0.2195 -1.6157
 4486SOL     OW13456   2.973   4.332   4.235 -0.0353 -0.5587  0.6541
 4486SOL    HW113457   2.940   4.411   4.192  0.4062  0.1997  1.6719
 4486SOL    HW213458   3.037   4.296   4.174  0.8414  0.6994  0.7981
 4487SOL     OW13459   5.741   4.744   0.250 -0.2135 -0.1051  0.2578
 4487SOL    HW113460   5.727   4.831   0.288  0.7461 -0.3517  1.2416
 4487SOL    HW213461   5.699   4.748   0.164  1.7767  2.1044 -0.7285
 4488SOL     OW13462   5.281   5.659   1.696 -0.2745 -0.0056 -0.5175
 4488SOL    HW113463   5.327   5.626   1.774 -0.7844  0.0525 -0.1904
 4488SOL    HW213464   5.215   5.719   1.731 -0.3144  0.2403 -1.0167
 4489SOL     OW13465   2.436   0.387   0.068  0.0158 -0.0076 -0.0036
 4489SOL    HW113466   2.471   0.472   0.096  1.5647  0.4532 -2.9652
 4489SOL    HW213467   2.352   0.408   0.028 -0.5603 -0.1947  1.0705
 4490SOL     OW13468   3.985   4.448   1.309  1.0309 -0.0621 -0.1620
 4490SOL    HW113469   3.907   4.485   1.351  1.4058 -0.0371  0.5385
 4490SOL    HW213470   3.951   4.378   1.253  0.4592  0.3029 -0.2877
 4491SOL     OW13471   4.501   1.761   5.712 -0.1854  0.0620  0.1256
 4491SOL    HW113472   4.498   1.797   5.623 -1.2048  0.0896  0.1655
 4491SOL    HW213473   4.511   1.838   5.768 -0.4311  0.1151  0.0949
 4492SOL     OW13474   4.789   0.960   5.611 -0.1066 -0.6559  0.0765
 4492SOL    HW113475   4.773   0.989   5.701 -1.6385 -0.9612 -0.0824
 4492SOL    HW213476   4.707   0.919   5.583  0.6023 -1.2810 -1.1923
 4493SOL     OW13477   3.836   2.566   0.094 -0.3397  0.0257 -0.5881
 4493SOL    HW113478   3.754   2.592   0.052 -1.1844 -0.6142  0.6080
 4493SOL    HW213479   3.875   2.648   0.123 -0.8527  0.2928 -0.6318
 4494SOL     OW13480   5.300   1.904   5.199 -0.0977  0.2582  0.3557
 4494SOL    HW113481   5.307   1.902   5.103  0.1761 -0.4179  0.3866
 4494SOL    HW213482   5.373   1.959   5.227  0.8477 -0.9175  0.2657
 4495SOL     OW13483   1.630   5.240   5.243 -0.5272 -0.2950 -0.2334
 4495SOL    HW113484   1.687   5.225   5.319 -2.1825 -1.0399  0.9225
 4495SOL    HW213485   1.634   5.159   5.193 -0.2473 -0.1856 -0.3909
 4496SOL     OW13486   3.865   3.876   1.798  0.8402  0.4729  0.0589
 4496SOL    HW113487   3.871   3.933   1.875  1.0746  3.2544 -1.9008
 4496SOL    HW213488   3.956   3.858   1.775  0.8851  2.0662 -1.1795
 4497SOL     OW13489   3.988   0.271   5.276  0.6613  0.1377 -0.4678
 4497SOL    HW113490   4.005   0.360   5.246  2.9818 -0.4593 -1.1862
 4497SOL    HW213491   4.065   0.222   5.248 -0.0784 -1.8845  0.8191
 4498SOL     OW13492   0.716   3.988   1.968 -0.4642  0.0203 -0.4057
 4498SOL    HW113493   0.638   3.986   2.022 -0.0763 -1.0066  0.1485
 4498SOL    HW213494   0.684   3.984   1.878 -1.0395 -2.1516 -0.1551
 4499SOL     OW13495   5.693   1.308   1.821  0.1617  0.4676  0.5425
 4499SOL    HW113496   5.709   1.361   1.743 -0.2447 -0.2213 -0.0089
 4499SOL    HW213497   5.771   1.253   1.829  0.1429  0.4428  0.5548
 4500SOL     OW13498   3.339   1.534   4.269  0.2328 -0.1824  0.0258
 4500SOL    HW113499   3.377   1.597   4.331  0.4236 -1.4369  1.2181
 4500SOL    HW213500   3.336   1.582   4.186  1.9506  0.8500  0.5044
 4501SOL     OW13501   0.341   3.173   5.629 -0.3098  0.1914  0.3482
 4501SOL    HW113502   0.322   3.132   5.713  0.6564  0.5550  0.7632
 4501SOL    HW213503   0.259   3.168   5.580 -0.6640 -0.7347  1.0084
 4502SOL     OW13504   3.426   2.866   3.509 -0.3497 -0.5229 -0.1551
 4502SOL    HW113505   3.454   2.869   3.418  0.0048  0.7714 -0.0221
 4502SOL    HW213506   3.491   2.810   3.552 -2.1206 -3.5678 -1.1830
 4503SOL     OW13507   3.456   5.029   0.471 -0.2819  0.1344 -0.1220
 4503SOL    HW113508   3.457   5.079   0.553 -0.9764  0.5296 -0.3474
 4503SOL    HW213509   3.375   5.055   0.428 -0.3964 -0.7868 -0.4992
 4504SOL     OW13510   5.757   0.559   3.175  0.4000 -0.3536 -0.2285
 4504SOL    HW113511   5.781   0.534   3.264  0.7988 -4.2367 -1.2324
 4504SOL    HW213512   5.667   0.590   3.182  0.5772 -0.1183  1.5516
 4505SOL     OW13513   5.588   2.127   4.928 -0.1663  0.2348 -0.4106
 4505SOL    HW113514   5.612   2.047   4.882  1.0993  0.6768 -0.5601
 4505SOL    HW213515   5.566   2.098   5.017  0.8717 -0.2267 -0.2869
 4506SOL     OW13516   5.198   2.539   1.408 -0.3755 -0.0527  0.0478
 4506SOL    HW113517   5.214   2.616   1.353 -0.0667  0.0384  0.2665
 4506SOL    HW213518   5.245   2.468   1.365 -2.0468 -0.5298 -1.1202
 4507SOL     OW13519   5.031   1.974   1.102  0.2539  0.5425 -0.6566
 4507SOL    HW113520   4.958   1.990   1.161  1.0913  0.5634  0.3932
 4507SOL    HW213521   5.109   1.976   1.158  0.9502 -0.8632 -1.5174
 4508SOL     OW13522   0.597   0.224   0.371  0.4928 -0.4964 -0.4734
 4508SOL    HW113523   0.653   0.298   0.347 -0.1444  0.0855 -0.2064
 4508SOL    HW213524   0.658   0.151   0.385  1.1814  0.1108 -0.2395
 4509SOL     OW13525   3.091   5.138   0.810  0.0963  0.0402 -0.3493
 4509SOL    HW113526   3.135   5.168   0.890  0.0303 -2.1119  0.5606
 4509SOL    HW213527   3.154   5.155   0.740  2.0430 -1.9969  0.7750
 4510SOL     OW13528   0.705   1.183   4.059  0.1926  0.0229 -0.2573
 4510SOL    HW113529   0.754   1.260   4.089  1.9306 -1.7684  1.8900
 4510SOL    HW213530   0.759   1.147   3.988 -1.1706  1.2718 -2.0235
 4511SOL     OW13531   5.709   0.306   1.894 -0.7064  0.2452 -0.4019
 4511SOL    HW113532   5.699   0.240   1.826  2.1512 -2.8185  1.8343
 4511SOL    HW213533   5.623   0.310   1.937 -1.3603 -0.8490 -1.5390
 4512SOL     OW13534   3.732   0.328   2.629  0.2473 -0.3616 -0.1233
 4512SOL    HW113535   3.670   0.354   2.562  0.0315  0.5287  0.4031
 4512SOL    HW213536   3.802   0.283   2.581 -1.0109 -1.8270 -0.6708
 4513SOL     OW13537   5.220   2.678   3.170  0.3912 -0.2456  0.0012
 4513SOL    HW113538   5.273   2.743   3.125 -0.0986 -0.3804 -0.8087
 4513SOL    HW213539   5.231   2.697   3.263  0.8648  0.4977 -0.1990
 4514SOL     OW13540   2.927   2.697   0.054 -0.2120 -0.2882  0.3386
 4514SOL    HW113541   2.930   2.792   0.056  0.6919 -0.2490 -1.3012
 4514SOL    HW213542   2.848   2.676   0.003 -1.3064 -0.4795  2.0390
 4515SOL     OW13543   0.424   1.710   0.099  0.3822  0.3391 -0.2277
 4515SOL    HW113544   0.345   1.743   0.056  0.2812  0.2671 -0.1007
 4515SOL    HW213545   0.470   1.661   0.031 -0.4385 -0.9010  0.0696
 4516SOL     OW13546   3.874   5.498   5.984  0.8967  0.0873  0.1536
 4516SOL    HW113547   3.927   5.454   5.918 -1.5502 -0.0600 -1.8595
 4516SOL    HW213548   3.808   5.433   6.009 -0.8021  1.4697 -0.4898
 4517SOL     OW13549   3.438   0.172   1.063  0.0951  0.0459  0.1689
 4517SOL    HW113550   3.424   0.238   1.131  0.1193  0.3829 -0.1481
 4517SOL    HW213551   3.533   0.165   1.055  0.1130 -0.7321  0.8693
 4518SOL     OW13552   5.110   1.019   2.287 -0.1356 -0.2055  0.5395
 4518SOL    HW113553   5.138   0.935   2.249 -0.9544  0.7634 -2.5008
 4518SOL    HW213554   5.016   1.008   2.303  0.2288 -0.6636  2.6894
 4519SOL     OW13555   5.125   5.581   5.667  0.1479 -0.3640 -0.2772
 4519SOL    HW113556   5.148   5.489   5.681 -0.4704 -0.0472  4.0288
 4519SOL    HW213557   5.030   5.581   5.654  0.1732 -0.3392 -0.4675
 4520SOL     OW13558   2.197   4.218   4.030 -0.1625  0.4970 -0.4079
 4520SOL    HW113559   2.205   4.308   4.063 -1.1706  0.5270 -0.1948
 4520SOL    HW213560   2.112   4.189   4.063  0.7406 -1.0288  0.6867
 4521SOL     OW13561   4.298   2.457   1.677  0.0451 -0.3568  0.9938
 4521SOL    HW113562   4.380   2.487   1.638 -0.4250  1.3998  1.3056
 4521SOL    HW213563   4.324   2.413   1.758  0.6255  1.1499  1.6458
 4522SOL     OW13564   1.840   3.862   0.551  0.2314  0.0892 -0.0187
 4522SOL    HW113565   1.834   3.877   0.457 -0.4222  1.2943  0.1998
 4522SOL    HW213566   1.802   3.775   0.564 -0.0579  0.0884 -0.8136
 4523SOL     OW13567   4.177   0.436   2.746  0.1179 -0.0981 -0.2872
 4523SOL    HW113568   4.082   0.448   2.759  0.1822  1.0030 -0.7308
 4523SOL    HW213569   4.188   0.341   2.738 -1.5262 -0.1507 -4.2601
 4524SOL     OW13570   5.459   0.272   2.076  0.7329  0.6935  0.2217
 4524SOL    HW113571   5.479   0.364   2.088  1.5737  0.5243  0.1675
 4524SOL    HW213572   5.485   0.230   2.158  2.1065  0.2410 -0.4145
 4525SOL     OW13573   5.174   1.431   2.301 -0.1133 -0.2682 -0.0302
 4525SOL    HW113574   5.148   1.416   2.210 -0.6812  1.2855 -0.1616
 4525SOL    HW213575   5.249   1.490   2.295  0.6065 -1.1145  0.4873
 4526SOL     OW13576   5.127   1.299   0.044 -0.3971  0.4662  0.6678
 4526SOL    HW113577   5.077   1.303  -0.038  0.7167  0.3050 -0.0376
 4526SOL    HW213578   5.064   1.269   0.109 -1.2983  0.5728 -0.1386
 4527SOL     OW13579   2.043   3.324   0.627 -0.5398 -0.2486 -0.1768
 4527SOL    HW113580   2.107   3.383   0.667 -0.2426  0.0777 -1.1050
 4527SOL    HW213581   2.096   3.255   0.587 -0.6791  0.5098 -1.7507
 4528SOL     OW13582   5.384   1.948   2.389 -0.3571 -0.4249  0.1161
 4528SOL    HW113583   5.465   1.905   2.363 -0.9061 -1.9290  0.7553
 4528SOL    HW213584   5.411   2.013   2.454  0.5174  0.3674 -1.0103
 4529SOL     OW13585   0.165   1.885   0.577  0.1863 -0.4954 -0.2780
 4529SOL    HW113586   0.121   1.870   0.493 -1.7036 -0.3525  0.6335
 4529SOL    HW213587   0.200   1.799   0.601  0.1933 -0.6767 -0.8975
 4530SOL     OW13588   4.665   1.658   1.952 -0.3048  0.1833  0.6181
 4530SOL    HW113589   4.584   1.633   1.997  0.8522 -1.5082  1.9009
 4530SOL    HW213590   4.707   1.720   2.011  0.1435 -0.2748  0.7840
 4531SOL     OW13591   0.200   1.649   3.805  0.2948  0.0822  0.4364
 4531SOL    HW113592   0.236   1.689   3.726  1.2504 -0.4296  0.6030
 4531SOL    HW213593   0.157   1.570   3.773  0.4261  0.0284  0.3904
 4532SOL     OW13594   5.671   2.346   2.004  0.1401  0.2054  0.4746
 4532SOL    HW113595   5.578   2.346   1.980  0.5160  2.6341 -1.3821
 4532SOL    HW213596   5.674   2.295   2.085 -2.5815 -1.1025 -0.0985
 4533SOL     OW13597   1.732  -0.021   4.633  0.3377  1.1865  0.4121
 4533SOL    HW113598   1.651  -0.009   4.583  0.2777 -2.1456 -0.4923
 4533SOL    HW213599   1.794   0.039   4.591 -0.5153  0.6249 -1.8167
 4534SOL     OW13600   5.686   4.387   0.440 -0.1090  0.1890 -0.1776
 4534SOL    HW113601   5.619   4.398   0.372  0.4458 -0.8928 -0.9284
 4534SOL    HW213602   5.760   4.440   0.410 -0.1681  0.3913  0.0266
 4535SOL     OW13603   5.857   2.126   5.867 -0.1507 -0.2693  0.5683
 4535SOL    HW113604   5.878   2.032   5.860 -0.5574 -0.4345  1.4306
 4535SOL    HW213605   5.942   2.170   5.860  0.3225 -0.8291  2.2147
 4536SOL     OW13606   1.026   2.125   0.462  0.1134 -0.4212  0.5611
 4536SOL    HW113607   1.009   2.182   0.537 -1.7797 -0.4748  0.2279
 4536SOL    HW213608   0.939   2.099   0.432  0.7992 -0.2424 -1.7742
 4537SOL     OW13609   4.992   5.943   5.868 -0.2199  0.1662  0.5243
 4537SOL    HW113610   4.969   5.879   5.802 -1.1446  2.4267 -1.4950
 4537SOL    HW213611   4.925   5.933   5.936 -1.6826  0.4136 -0.8201
 4538SOL     OW13612   4.741   1.216   5.399 -0.2098 -0.1887  0.4345
 4538SOL    HW113613   4.719   1.307   5.420  0.5747 -0.3770  2.2191
 4538SOL    HW213614   4.782   1.182   5.478  0.2361 -1.8790 -0.4738
 4539SOL     OW13615   2.288   0.085   2.496 -0.2965  0.1360  0.2420
 4539SOL    HW113616   2.381   0.061   2.496  0.0820  0.7552 -3.7934
 4539SOL    HW213617   2.245   0.014   2.543  2.1117 -0.6275  1.4954
 4540SOL     OW13618   0.203   2.064   1.754  0.0759 -0.8380 -0.1551
 4540SOL    HW113619   0.250   2.022   1.827  1.6206  0.1669 -0.5211
 4540SOL    HW213620   0.240   2.023   1.676  2.7142  2.0247 -0.6177
 4541SOL     OW13621   4.085   1.630   0.414  0.7647 -0.2424  0.0319
 4541SOL    HW113622   4.027   1.577   0.469  0.9414  1.5252  2.0471
 4541SOL    HW213623   4.145   1.672   0.475  0.7490  2.1507 -1.4386
 4542SOL     OW13624   3.253   0.315   5.691 -0.2338  0.3577  0.0393
 4542SOL    HW113625   3.180   0.377   5.700  0.9744  1.5677  2.3245
 4542SOL    HW213626   3.266   0.281   5.779  0.9364 -1.0775 -0.6478
 4543SOL     OW13627   4.708   3.450   1.194  0.0400 -0.5102 -0.3378
 4543SOL    HW113628   4.631   3.506   1.202  0.8685  0.4897  0.9371
 4543SOL    HW213629   4.781   3.506   1.218  1.1810 -1.4751 -1.4378
 4544SOL     OW13630   2.578   5.875   3.650  0.7034 -0.2907  0.6330
 4544SOL    HW113631   2.620   5.814   3.710 -0.0384 -2.1373 -0.6343
 4544SOL    HW213632   2.614   5.960   3.674  0.3229 -0.8793  3.7941
 4545SOL     OW13633   3.966   0.645   2.032 -0.0503  0.8772 -0.1309
 4545SOL    HW113634   4.043   0.612   1.985 -0.5404 -0.7326  0.1141
 4545SOL    HW213635   3.980   0.617   2.122 -1.1543  0.0815 -0.1883
 4546SOL     OW13636   1.326   4.188   1.974  0.3834 -0.3356  1.0068
 4546SOL    HW113637   1.405   4.242   1.978 -1.1412  2.2773 -1.1262
 4546SOL    HW213638   1.344   4.124   1.905  1.1134 -0.7347  1.5457
 4547SOL     OW13639   4.961   0.560   4.189  0.2091 -0.2876  0.1390
 4547SOL    HW113640   4.866   0.550   4.196  0.0195  1.5660  0.7652
 4547SOL    HW213641   4.984   0.622   4.258  2.2514 -2.5384  1.6210
 4548SOL     OW13642   3.381   0.691   1.790  0.4002  0.0860 -0.2961
 4548SOL    HW113643   3.465   0.706   1.835 -0.1134 -1.3280  1.2543
 4548SOL    HW213644   3.395   0.724   1.701  3.2289 -1.7534 -0.6634
 4549SOL     OW13645   5.829   0.827   0.551 -0.1979  0.1063 -0.2199
 4549SOL    HW113646   5.748   0.800   0.506 -1.2160  1.5115  0.6573
 4549SOL    HW213647   5.836   0.921   0.532 -0.7602  0.8131  2.5666
 4550SOL     OW13648   4.517   0.624   2.140 -0.7185  0.0215 -0.5077
 4550SOL    HW113649   4.465   0.544   2.129 -1.5783  0.7793 -2.4903
 4550SOL    HW213650   4.496   0.654   2.229 -0.2455 -1.9798  0.3554
 4551SOL     OW13651   2.681   4.960   5.962 -0.5276 -0.5160 -0.5577
 4551SOL    HW113652   2.712   5.050   5.974  0.9983 -0.4370 -3.8307
 4551SOL    HW213653   2.592   4.960   5.995 -0.1349  1.8393  0.7051
 4552SOL     OW13654   2.557   0.011   2.527 -0.4550 -0.6182  0.0897
 4552SOL    HW113655   2.622  -0.058   2.511 -0.7119 -0.9448  0.4522
 4552SOL    HW213656   2.609   0.089   2.547 -0.1546 -0.5935 -0.7561
 4553SOL     OW13657   4.563   3.169   3.169  0.2130 -0.0935 -0.2359
 4553SOL    HW113658   4.539   3.172   3.076 -0.9191 -0.6590  0.0271
 4553SOL    HW213659   4.495   3.221   3.213  1.3722  1.1558  0.1758
 4554SOL     OW13660   3.827   5.822   1.380  0.2850 -0.2959  0.1441
 4554SOL    HW113661   3.816   5.808   1.474  0.0816 -0.5431  0.0837
 4554SOL    HW213662   3.908   5.776   1.358  1.1375  0.9665  0.4630
 4555SOL     OW13663   5.305   1.511   3.433 -0.3472 -0.0168 -0.2625
 4555SOL    HW113664   5.390   1.466   3.438  0.0511  0.3432 -2.5508
 4555SOL    HW213665   5.314   1.569   3.357 -2.1396  1.1666  0.3807
 4556SOL     OW13666   1.837   5.801   2.443  0.6900  0.7793 -0.0294
 4556SOL    HW113667   1.744   5.781   2.436  1.3007 -1.9073 -2.5180
 4556SOL    HW213668   1.847   5.885   2.398 -0.3993  0.6978 -0.4570
 4557SOL     OW13669   0.393   2.045   6.007  0.0891  0.8454  0.1295
 4557SOL    HW113670   0.388   2.087   5.920  1.1313 -0.0333 -0.3788
 4557SOL    HW213671   0.378   1.952   5.990 -0.3841  0.7526  0.9994
 4558SOL     OW13672   5.052   1.930   0.469  0.1145  0.2206 -0.2382
 4558SOL    HW113673   5.100   2.003   0.430 -0.1259  0.4596 -0.0848
 4558SOL    HW213674   4.987   1.971   0.526  0.9259 -0.1355  0.9766
 4559SOL     OW13675   1.085   3.365   0.519  0.4324 -0.1807 -0.3462
 4559SOL    HW113676   1.100   3.457   0.496 -0.4078 -0.0715 -0.4929
 4559SOL    HW213677   1.003   3.366   0.567 -0.4238 -1.0442 -1.7213
 4560SOL     OW13678   2.148   3.535   0.994 -0.0986 -0.4476  0.1266
 4560SOL    HW113679   2.161   3.570   0.905 -2.1875 -0.1209 -0.0986
 4560SOL    HW213680   2.060   3.497   0.992 -0.9337  1.1208  2.5287
 4561SOL     OW13681   0.766   5.071   0.290  0.0199  0.0043 -0.0255
 4561SOL    HW113682   0.834   5.123   0.247 -0.4840  0.0023 -0.8415
 4561SOL    HW213683   0.787   4.980   0.268  1.0444 -0.2000  1.6040
 4562SOL     OW13684   2.525   2.782   5.818  0.0943  0.3527 -0.0999
 4562SOL    HW113685   2.448   2.756   5.768  0.2002  1.7398 -1.0215
 4562SOL    HW213686   2.496   2.781   5.909 -0.7537  0.0312 -0.3658
 4563SOL     OW13687   4.884   1.912   2.085  0.0186  0.3341  0.0277
 4563SOL    HW113688   4.858   2.003   2.101 -1.2981  0.2118 -1.2602
 4563SOL    HW213689   4.973   1.907   2.120 -0.5853  1.5804  1.8972
 4564SOL     OW13690   0.029   0.465   5.927  0.1295 -0.3429 -0.2013
 4564SOL    HW113691  -0.000   0.553   5.952 -0.9140 -0.3882 -1.1744
 4564SOL    HW213692  -0.012   0.407   5.991 -1.9930 -0.3985 -1.4857
 4565SOL     OW13693   0.908   1.087   2.469 -0.2668  0.7395 -0.0408
 4565SOL    HW113694   0.964   1.016   2.502  1.5837  1.2110 -1.8916
 4565SOL    HW213695   0.946   1.167   2.505 -0.3801  0.9984 -0.4858
 4566SOL     OW13696   1.368   2.658   2.639  0.0356 -0.2308 -0.5211
 4566SOL    HW113697   1.327   2.585   2.592  0.1585 -0.0326 -0.9404
 4566SOL    HW213698   1.418   2.616   2.710 -1.1907 -0.4553  0.2391
 4567SOL     OW13699   4.083   3.092   2.884  0.2948 -0.0389  0.0147
 4567SOL    HW113700   4.118   3.070   2.798 -2.3250 -0.8905 -0.9172
 4567SOL    HW213701   3.995   3.124   2.867 -0.0789  0.3635  2.3568
 4568SOL     OW13702   1.394   0.130   1.687  0.1091  0.0468  0.0485
 4568SOL    HW113703   1.444   0.067   1.635  1.1311 -0.5768  1.6895
 4568SOL    HW213704   1.456   0.200   1.707 -0.5039  0.6857 -0.2312
 4569SOL     OW13705   4.049   0.515   5.146  0.0634  0.1462 -0.2055
 4569SOL    HW113706   3.960   0.525   5.112 -0.1350 -0.5412  0.0947
 4569SOL    HW213707   4.103   0.497   5.069 -0.3686 -1.3047 -0.1897
 4570SOL     OW13708   3.819   0.614   0.306  0.7983  0.4170  0.4295
 4570SOL    HW113709   3.843   0.603   0.398  0.5008 -0.2811  0.4299
 4570SOL    HW213710   3.854   0.537   0.262 -0.6715 -0.2098  0.2939
 4571SOL     OW13711   5.371   4.136   2.529  0.0960 -0.3410 -0.5267
 4571SOL    HW113712   5.315   4.213   2.536  0.6833 -0.0206  0.7821
 4571SOL    HW213713   5.386   4.126   2.435 -1.2790  0.1923 -0.8224
 4572SOL     OW13714   1.991   1.132   1.780  0.0875  0.3820 -0.1831
 4572SOL    HW113715   2.005   1.225   1.764  0.0556  0.2953 -0.7610
 4572SOL    HW213716   2.058   1.088   1.727  0.7934  0.0944  0.9137
 4573SOL     OW13717   2.796   3.496   0.671  0.0090  0.5098 -0.2713
 4573SOL    HW113718   2.887   3.479   0.647  0.0816  0.7515 -0.1581
 4573SOL    HW213719   2.788   3.591   0.673 -0.4138  0.5021 -0.9367
 4574SOL     OW13720   4.069   2.981   4.380 -0.3891  0.0062 -0.5704
 4574SOL    HW113721   4.048   2.894   4.413 -0.8306  0.5864  0.6993
 4574SOL    HW213722   3.987   3.029   4.384  0.2470  1.0443  0.5316
 4575SOL     OW13723   3.200   3.457   1.770 -0.0848 -0.0296  0.2730
 4575SOL    HW113724   3.262   3.417   1.709 -0.8591 -1.3674  0.3117
 4575SOL    HW213725   3.160   3.383   1.815 -1.6400  0.7877  0.3061
 4576SOL     OW13726   0.967   2.313   0.666 -0.2067  0.5141 -0.2194
 4576SOL    HW113727   0.873   2.326   0.680 -0.1786  1.3891 -0.7288
 4576SOL    HW213728   0.999   2.401   0.644  0.7836  0.2778  0.2576
 4577SOL     OW13729   0.562   0.406   4.872  0.2171 -0.0020 -0.1597
 4577SOL    HW113730   0.581   0.356   4.793 -1.0133  0.0511 -0.5088
 4577SOL    HW213731   0.479   0.450   4.854  0.2307  0.5111  0.9253
 4578SOL     OW13732   1.500   1.142   0.669  0.1216 -0.2255  0.2030
 4578SOL    HW113733   1.571   1.078   0.665 -0.6570 -1.0583 -1.2754
 4578SOL    HW213734   1.508   1.192   0.588 -1.1699 -0.5648 -0.1568
 4579SOL     OW13735   1.389   3.074   0.935  0.1584  0.1091 -0.2023
 4579SOL    HW113736   1.466   3.116   0.895 -0.8396  1.3651 -0.8755
 4579SOL    HW213737   1.398   3.093   1.028  1.5498 -1.2740 -0.0012
 4580SOL     OW13738   5.390   5.035   4.028 -0.3698  0.0083 -0.1319
 4580SOL    HW113739   5.448   4.966   3.997 -0.1360  0.5307 -0.8733
 4580SOL    HW213740   5.306   4.991   4.043 -0.0910 -0.5283 -0.1104
 4581SOL     OW13741   5.351   1.167   0.589 -0.3805  0.0510 -0.0676
 4581SOL    HW113742   5.364   1.219   0.510 -1.6768 -1.8191 -1.5977
 4581SOL    HW213743   5.320   1.230   0.654  1.5531  1.7948 -0.7302
 4582SOL     OW13744   2.979   0.774   5.830 -0.4079 -0.1478 -0.1937
 4582SOL    HW113745   2.931   0.834   5.773  0.4727 -0.7208 -1.5961
 4582SOL    HW213746   2.991   0.695   5.777 -0.4671 -1.1134  1.1755
 4583SOL     OW13747   4.775   1.589   3.875  0.1269 -0.2711  0.2347
 4583SOL    HW113748   4.864   1.564   3.897  0.4509  0.4451 -0.2364
 4583SOL    HW213749   4.784   1.652   3.803 -0.6355  1.1982  1.3461
 4584SOL     OW13750   2.968   5.451   4.507  0.4319  0.3114 -0.2317
 4584SOL    HW113751   3.060   5.473   4.495  0.4745  1.2091  1.4581
 4584SOL    HW213752   2.939   5.506   4.580 -0.7590 -1.8090  1.0088
 4585SOL     OW13753   2.913   1.827   0.161  0.4442 -0.4843  0.2483
 4585SOL    HW113754   2.944   1.738   0.181  1.7050 -0.1394 -0.0770
 4585SOL    HW213755   2.832   1.813   0.112  1.4632 -1.5260 -1.2291
 4586SOL     OW13756   0.484   0.619   0.832 -0.3231 -0.1520 -0.3327
 4586SOL    HW113757   0.534   0.663   0.901 -0.5087  0.8215 -0.7991
 4586SOL    HW213758   0.418   0.569   0.879 -0.8818  1.0418  0.1888
 4587SOL     OW13759   5.522   2.280   4.041 -0.7450 -0.7098  0.0771
 4587SOL    HW113760   5.528   2.185   4.046 -1.8065 -0.8163 -0.4370
 4587SOL    HW213761   5.439   2.301   4.084 -1.2404 -0.1521 -1.1138
 4588SOL     OW13762   5.819   0.655   2.174  0.5394 -0.0493  0.9713
 4588SOL    HW113763   5.899   0.607   2.193  0.0176 -1.3310  0.0772
 4588SOL    HW213764   5.826   0.679   2.082  0.8725  1.8069  1.4483
 4589SOL     OW13765   4.877   5.536   2.143 -0.0655 -0.4322 -0.1695
 4589SOL    HW113766   4.939   5.548   2.214  0.4583  0.2933 -0.7321
 4589SOL    HW213767   4.839   5.623   2.129  1.1589 -0.1246 -1.9497
 4590SOL     OW13768   4.945   0.767   3.788  0.2337  0.2977  0.7318
 4590SOL    HW113769   4.871   0.777   3.847 -1.2501  0.3011 -1.0549
 4590SOL    HW213770   4.911   0.791   3.702  2.7947  2.1074  0.1044
 4591SOL     OW13771   2.302   3.113   1.669 -0.1171 -0.5889 -0.0972
 4591SOL    HW113772   2.260   3.030   1.646  1.0165 -0.9052 -1.1374
 4591SOL    HW213773   2.247   3.179   1.628 -1.6166 -0.7169  1.6062
 4592SOL     OW13774   3.036   3.956   5.898 -0.0938  0.8781 -0.0880
 4592SOL    HW113775   3.062   4.024   5.960  0.5440  1.5160 -1.0252
 4592SOL    HW213776   2.950   3.929   5.927  1.7649 -1.9224  3.7075
 4593SOL     OW13777   5.458   2.464   3.358 -0.0988  0.0149 -0.7914
 4593SOL    HW113778   5.383   2.509   3.396  0.6639  0.2330  0.5291
 4593SOL    HW213779   5.490   2.523   3.290  0.0411  0.8445 -0.0255
 4594SOL     OW13780   5.928   0.301   2.523 -0.6415 -0.2780  0.2741
 4594SOL    HW113781   5.865   0.261   2.464 -0.1315  0.6136 -0.9308
 4594SOL    HW213782   5.969   0.371   2.471  0.8142 -0.3517  1.2410
 4595SOL     OW13783   4.999   2.525   3.626  0.3377 -0.2578  0.0921
 4595SOL    HW113784   5.093   2.532   3.639  0.4451  0.0111 -0.7507
 4595SOL    HW213785   4.978   2.596   3.564 -0.5089  0.0694  0.7337
 4596SOL     OW13786   5.781   5.194   2.954  0.1130  0.6080  0.2224
 4596SOL    HW113787   5.734   5.164   3.032 -1.0129 -0.5980 -0.8633
 4596SOL    HW213788   5.804   5.113   2.908 -1.2028  1.3053 -1.7806
 4597SOL     OW13789   4.987   2.478   0.772  0.0529 -0.7037  0.0111
 4597SOL    HW113790   5.054   2.410   0.777  0.0507 -0.6425  1.1224
 4597SOL    HW213791   4.926   2.456   0.842  0.7440  1.1630  1.2727
 4598SOL     OW13792   3.102   5.319   1.251  0.1164 -0.6145  0.0949
 4598SOL    HW113793   3.041   5.387   1.279 -0.3581 -1.1484  0.3782
 4598SOL    HW213794   3.182   5.335   1.303 -1.0149 -2.0876  2.4833
 4599SOL     OW13795   5.242   2.448   1.021  0.0366  1.1053  0.1056
 4599SOL    HW113796   5.153   2.473   1.044  0.1209  2.6091 -1.0135
 4599SOL    HW213797   5.233   2.390   0.946 -0.0564 -0.5362  1.3292
 4600SOL     OW13798   3.151   0.212   5.257  0.2768 -0.8254  0.1134
 4600SOL    HW113799   3.227   0.210   5.315  1.3437  1.7633 -1.0182
 4600SOL    HW213800   3.075   0.217   5.315  1.2538  0.6997  1.3358
 4601SOL     OW13801   5.899   2.722   3.298 -0.7033 -0.2661 -0.3669
 4601SOL    HW113802   5.848   2.734   3.218 -1.4793 -2.3472 -0.2430
 4601SOL    HW213803   5.951   2.644   3.282 -0.0662 -0.1021  0.7866
 4602SOL     OW13804   5.147   3.205   0.088  0.1847 -0.0397 -0.2404
 4602SOL    HW113805   5.212   3.212   0.018  1.1461  0.1789  0.6646
 4602SOL    HW213806   5.191   3.155   0.157 -0.1266  1.2544  0.9369
 4603SOL     OW13807   5.960   0.935   1.287 -0.6815 -0.3625 -0.1134
 4603SOL    HW113808   5.891   0.910   1.226  1.6011 -0.6555 -2.7819
 4603SOL    HW213809   5.983   1.024   1.262 -0.4438 -0.0463  1.1469
 4604SOL     OW13810   0.202   0.256   1.523  0.4623  0.5372  0.4457
 4604SOL    HW113811   0.159   0.188   1.575  1.7961  0.2242  1.1854
 4604SOL    HW213812   0.139   0.277   1.454  0.8183 -3.0710 -1.2296
 4605SOL     OW13813   3.754   1.375   0.268  0.3638 -0.6885  0.2535
 4605SOL    HW113814   3.736   1.446   0.331  0.1886  1.0871 -1.6975
 4605SOL    HW213815   3.826   1.326   0.309  1.5995  1.5604  1.0186
 4606SOL     OW13816   0.425   2.458   4.935 -0.3607 -0.1588 -0.4611
 4606SOL    HW113817   0.334   2.466   4.965 -0.0608 -0.4051  0.5575
 4606SOL    HW213818   0.477   2.457   5.016  0.5481 -0.0439 -1.0295
 4607SOL     OW13819   4.010   5.310   0.817 -0.6584 -0.5405 -0.1415
 4607SOL    HW113820   4.034   5.229   0.864 -0.7423 -0.3939  0.1563
 4607SOL    HW213821   3.924   5.291   0.781 -0.9186 -0.3948  0.3877
 4608SOL     OW13822   5.965   2.242   0.514 -0.3938 -0.1956  0.3796
 4608SOL    HW113823   5.928   2.249   0.426  1.2986 -1.8881 -0.5426
 4608SOL    HW213824   5.938   2.156   0.545  0.4344 -0.3137  0.8080
 4609SOL     OW13825   0.724   1.188   2.005 -0.1605  0.3788  0.0226
 4609SOL    HW113826   0.731   1.249   2.078 -2.6657 -0.3127  0.9356
 4609SOL    HW213827   0.699   1.243   1.930 -2.0959  0.5819  0.7658
 4610SOL     OW13828   4.348   3.076   1.280  0.4283 -0.4314 -0.2762
 4610SOL    HW113829   4.312   2.991   1.253  2.7335 -1.7933  0.7062
 4610SOL    HW213830   4.441   3.071   1.258  1.1476  0.8137  2.1658
 4611SOL     OW13831   3.852   0.038   2.057  0.1471  0.0555  0.1494
 4611SOL    HW113832   3.778   0.096   2.073  0.5944  0.4338  0.9111
 4611SOL    HW213833   3.818  -0.049   2.077  0.3833  0.4031  2.2969
 4612SOL     OW13834   0.601   4.044   1.072  0.1139  0.2705  0.3508
 4612SOL    HW113835   0.694   4.038   1.052  0.5972  1.1508  2.1178
 4612SOL    HW213836   0.587   4.135   1.096 -0.8559 -0.1680  1.5896
 4613SOL     OW13837   2.708   0.325  -0.024 -0.9190 -0.5452  0.0219
 4613SOL    HW113838   2.743   0.270   0.045 -1.0286 -1.8358 -0.9175
 4613SOL    HW213839   2.626   0.360   0.012 -1.2192 -1.5871  0.3635
 4614SOL     OW13840   4.275   1.098   1.259  0.4584 -0.2970 -0.1576
 4614SOL    HW113841   4.244   1.062   1.341  1.1600 -1.7430 -0.5048
 4614SOL    HW213842   4.195   1.122   1.212  0.0626  1.4482  1.2840
 4615SOL     OW13843   0.086   4.449   1.380  0.0399  0.9699  0.3500
 4615SOL    HW113844   0.071   4.539   1.349 -0.5554  1.3930  1.7965
 4615SOL    HW213845   0.101   4.459   1.474  1.0880 -0.3458  0.3488
 4616SOL     OW13846   3.880   3.690   1.309  0.5198 -0.3880  0.0674
 4616SOL    HW113847   3.851   3.652   1.391 -0.8633 -1.0491 -0.6896
 4616SOL    HW213848   3.956   3.744   1.332  0.3592 -0.8272  1.6990
 4617SOL     OW13849   5.237   0.710   3.193  0.4697  0.0705  0.3021
 4617SOL    HW113850   5.235   0.762   3.113 -3.1402 -2.4536 -1.5437
 4617SOL    HW213851   5.294   0.759   3.253  1.0638  3.5547 -2.7795
 4618SOL     OW13852   4.227   1.305   1.696 -0.0128  0.4014  0.0448
 4618SOL    HW113853   4.268   1.225   1.727 -0.3879 -0.2754 -1.1684
 4618SOL    HW213854   4.300   1.362   1.673  0.2657 -0.4439 -1.2180
 4619SOL     OW13855   5.844   0.225   2.279  0.0109  0.2934 -0.3141
 4619SOL    HW113856   5.863   0.279   2.202  1.2116 -0.3044 -0.4571
 4619SOL    HW213857   5.878   0.139   2.256  0.7208  0.1978  1.0281
 4620SOL     OW13858   1.416   5.959   2.866  0.1776  0.4919  0.3121
 4620SOL    HW113859   1.361   5.883   2.885  0.8830  0.1817  1.1537
 4620SOL    HW213860   1.399   6.020   2.937 -0.7166  1.3342 -0.5919
 4621SOL     OW13861   4.051   5.714   2.523 -0.2202 -0.8127 -0.3787
 4621SOL    HW113862   4.066   5.676   2.436  1.2564 -1.6883  0.2301
 4621SOL    HW213863   3.999   5.648   2.569  0.8284 -1.3335  0.0903
 4622SOL     OW13864   1.937   2.871   6.003  0.4268  0.0650  0.0155
 4622SOL    HW113865   1.939   2.853   5.909 -1.7093 -1.0126  0.1146
 4622SOL    HW213866   1.865   2.933   6.013  0.8682  0.4437  0.9126
 4623SOL     OW13867   2.400   2.197   5.549  0.0910 -0.1248 -0.0585
 4623SOL    HW113868   2.473   2.250   5.517 -0.5645 -0.1701 -1.7264
 4623SOL    HW213869   2.378   2.140   5.475 -1.8181  0.0904  0.3118
 4624SOL     OW13870   3.200   3.869   1.445 -0.4067 -0.6337 -0.3589
 4624SOL    HW113871   3.227   3.844   1.534  2.6545  0.2762 -0.9177
 4624SOL    HW213872   3.106   3.885   1.453 -0.2513 -0.5394  2.7378
 4625SOL     OW13873   3.819   1.595   2.306 -1.0057 -0.5860  0.4716
 4625SOL    HW113874   3.868   1.526   2.352  1.5183 -0.0337 -1.1811
 4625SOL    HW213875   3.850   1.676   2.346 -0.9208 -0.2539 -0.2457
 4626SOL     OW13876   1.964   5.885   3.914 -0.0907  0.1960 -1.2950
 4626SOL    HW113877   1.874   5.874   3.947  0.9243 -0.0635  1.7327
 4626SOL    HW213878   2.008   5.804   3.939  1.3288  0.8885 -1.4694
 4627SOL     OW13879   1.207   1.971   3.464 -0.0397 -0.6994  0.0679
 4627SOL    HW113880   1.242   2.029   3.397 -1.9608 -0.3978 -0.7364
 4627SOL    HW213881   1.274   1.969   3.532  0.9930  0.7371 -0.8651
 4628SOL     OW13882   5.750   2.192   3.627  0.1835 -0.2291 -0.1441
 4628SOL    HW113883   5.678   2.226   3.680 -1.3279 -1.1084 -1.5268
 4628SOL    HW213884   5.757   2.254   3.554  0.5421 -0.4026 -0.2608
 4629SOL     OW13885   1.547   0.175   1.234 -0.7083 -0.2529  0.2372
 4629SOL    HW113886   1.607   0.101   1.232  0.4947  0.6990  0.0555
 4629SOL    HW213887   1.575   0.227   1.309 -0.1780  1.0885 -0.8491
 4630SOL     OW13888   0.541   0.558   3.164  0.3477  0.1082  0.1353
 4630SOL    HW113889   0.528   0.649   3.139 -0.4476  0.1788  0.7824
 4630SOL    HW213890   0.580   0.517   3.086  0.0425  0.8312 -0.4059
 4631SOL     OW13891   4.904   5.754   1.450  0.0930  0.6899  0.5115
 4631SOL    HW113892   4.888   5.720   1.362 -2.2860  0.8039  0.8301
 4631SOL    HW213893   4.959   5.688   1.492  0.6939  0.3098 -0.8224
 4632SOL     OW13894   3.552   4.835   3.790 -0.2225  0.4147 -0.1638
 4632SOL    HW113895   3.508   4.794   3.716  1.4110  0.9804 -1.5246
 4632SOL    HW213896   3.503   4.915   3.806 -1.8278 -0.6863  0.7785
 4633SOL     OW13897   4.344   1.452   5.313 -0.0458  0.4236 -0.4293
 4633SOL    HW113898   4.300   1.481   5.233 -1.3001 -0.4299 -0.0874
 4633SOL    HW213899   4.273   1.424   5.370  0.9260 -0.5561  0.3443
 4634SOL     OW13900   4.455   3.803   4.899 -0.1224 -0.3318  0.2207
 4634SOL    HW113901   4.389   3.734   4.908  0.6807 -0.9654  1.7231
 4634SOL    HW213902   4.461   3.842   4.987 -0.1541  1.2910 -0.4702
 4635SOL     OW13903   5.717   2.439   1.166 -0.2206  0.0707 -0.5512
 4635SOL    HW113904   5.650   2.428   1.098 -1.1086  3.1098 -0.3065
 4635SOL    HW213905   5.797   2.405   1.126 -1.4435 -1.6963 -1.6495
 4636SOL     OW13906   3.549   1.689   0.985  0.2798 -0.2268 -0.4754
 4636SOL    HW113907   3.493   1.758   0.949  0.8936  0.1067 -0.8277
 4636SOL    HW213908   3.497   1.648   1.053  0.0222  0.8349 -0.0079
 4637SOL     OW13909   4.250   5.637   3.572 -0.5753  0.2984  0.3805
 4637SOL    HW113910   4.185   5.702   3.546 -0.3558  0.5376  0.4185
 4637SOL    HW213911   4.208   5.587   3.642 -0.6836  0.5133  0.4704
 4638SOL     OW13912   2.450   5.736   3.483 -0.3578 -0.0004  0.1918
 4638SOL    HW113913   2.498   5.749   3.401  0.3637  0.3561  0.6622
 4638SOL    HW213914   2.496   5.791   3.546 -0.8690 -0.3258  0.8510
 4639SOL     OW13915   1.644   0.100   3.528  0.5391  0.1817 -0.0862
 4639SOL    HW113916   1.620   0.151   3.605  0.1503 -1.8861  1.2565
 4639SOL    HW213917   1.713   0.041   3.559  0.6510 -0.4212 -1.4312
 4640SOL     OW13918   4.082   2.201   4.177  0.2779 -0.0373 -0.1237
 4640SOL    HW113919   4.164   2.179   4.132  2.0398  0.3708  2.6918
 4640SOL    HW213920   4.053   2.282   4.135  1.3994 -0.0939 -1.0524
 4641SOL     OW13921   0.098   1.896   2.195  0.4529  0.1227  0.3367
 4641SOL    HW113922   0.014   1.921   2.158  0.9365 -0.1663 -1.0008
 4641SOL    HW213923   0.139   1.979   2.220  0.5022  0.4022 -0.6393
 4642SOL     OW13924   5.219   4.861   5.986 -0.4111  0.1254  0.6337
 4642SOL    HW113925   5.132   4.890   5.958 -0.8600 -0.5896  1.2368
 4642SOL    HW213926   5.258   4.822   5.908  0.9835  3.8809 -0.7767
 4643SOL     OW13927   0.118   5.867   3.264  0.1586  0.4512 -0.6035
 4643SOL    HW113928   0.178   5.827   3.201  1.6371  0.9902  0.4179
 4643SOL    HW213929   0.046   5.902   3.211  1.3186  0.8147 -1.9754
 4644SOL     OW13930   3.980   1.243   2.900  0.5849  0.7474 -0.2900
 4644SOL    HW113931   3.954   1.180   2.834  1.5415 -0.1245  0.1446
 4644SOL    HW213932   3.897   1.271   2.941  0.1765 -0.4143 -0.3050
 4645SOL     OW13933   5.069   5.546   4.202  0.5048  0.2377  0.4342
 4645SOL    HW113934   5.019   5.560   4.282 -1.2878  1.0384 -0.7706
 4645SOL    HW213935   5.043   5.618   4.145  1.9677 -0.1557 -0.7903
 4646SOL     OW13936   0.411   3.454   0.306 -0.1085  0.7335 -0.3582
 4646SOL    HW113937   0.361   3.473   0.386 -0.8047  0.4584 -0.7225
 4646SOL    HW213938   0.371   3.509   0.239  1.4904  2.1853 -0.2089
 4647SOL     OW13939   3.579   0.146   1.940 -0.1789  0.2968 -0.0928
 4647SOL    HW113940   3.518   0.103   2.000 -0.4072  0.3581 -0.2833
 4647SOL    HW213941   3.528   0.215   1.899 -0.1824 -0.1007 -0.7789
 4648SOL     OW13942   5.660   2.401   5.008  0.1772  0.4181 -0.1290
 4648SOL    HW113943   5.642   2.315   4.971 -0.5620  0.6414 -0.3135
 4648SOL    HW213944   5.632   2.462   4.939  0.4125  0.8121  0.1205
 4649SOL     OW13945   4.786   1.394   2.071 -0.1773  0.1645 -0.4584
 4649SOL    HW113946   4.801   1.476   2.118  0.5292 -0.2796  0.1261
 4649SOL    HW213947   4.866   1.381   2.020  0.2665 -0.7811  0.4308
 4650SOL     OW13948   5.413   5.533   3.919  0.4058  0.1994 -0.0124
 4650SOL    HW113949   5.398   5.548   4.012  0.4409 -0.1311  0.0487
 4650SOL    HW213950   5.390   5.441   3.906  1.2392  0.0017 -0.1492
 4651SOL     OW13951   2.768   0.756   3.381 -0.2997 -0.0662  0.3329
 4651SOL    HW113952   2.765   0.840   3.334 -0.6867  0.6006  1.5064
 4651SOL    HW213953   2.701   0.703   3.339 -1.3909  0.8988  0.8244
 4652SOL     OW13954   0.955   0.672   2.420  0.3945 -0.0199  0.3340
 4652SOL    HW113955   0.879   0.730   2.425 -0.0921 -0.7221  1.5224
 4652SOL    HW213956   1.001   0.700   2.341 -2.1079 -0.7926 -1.5105
 4653SOL     OW13957   1.435   1.399   2.353 -0.1524 -0.2537  1.0125
 4653SOL    HW113958   1.474   1.322   2.312  0.4706  0.8278 -0.5270
 4653SOL    HW213959   1.342   1.378   2.362 -0.3640 -0.4596 -1.2127
 4654SOL     OW13960   2.989   1.293   4.834  0.4021 -0.2774 -0.4976
 4654SOL    HW113961   3.046   1.360   4.872 -0.3595 -0.5414  1.2127
 4654SOL    HW213962   2.901   1.330   4.838  0.2161 -0.6210 -1.3318
 4655SOL     OW13963   4.182   0.781   1.619  0.2181 -0.7045  0.7872
 4655SOL    HW113964   4.100   0.748   1.654  0.6180 -0.6082  1.8580
 4655SOL    HW213965   4.249   0.750   1.680  0.7469  0.9993  1.1440
 4656SOL     OW13966   5.335   1.251   2.940 -0.0967  0.0818 -0.1704
 4656SOL    HW113967   5.423   1.237   2.975  0.3579  0.4332 -1.1527
 4656SOL    HW213968   5.348   1.301   2.860 -1.2104  0.3066 -0.2311
 4657SOL     OW13969   4.444   1.346   3.694  0.1261  0.3194  0.4225
 4657SOL    HW113970   4.506   1.395   3.641  0.9434 -2.4518 -1.3744
 4657SOL    HW213971   4.495   1.317   3.770 -0.0716  1.2059  0.9198
 4658SOL     OW13972   0.106   0.003   1.685 -0.2043  0.4177 -0.1248
 4658SOL    HW113973   0.154  -0.040   1.755  1.5566 -0.9238 -2.0193
 4658SOL    HW213974   0.051   0.067   1.729 -0.7622 -1.7632  2.6183
 4659SOL     OW13975   1.120   0.255   4.381  0.1655  0.1832 -0.2564
 4659SOL    HW113976   1.152   0.169   4.410  0.7101  0.1033 -1.0782
 4659SOL    HW213977   1.192   0.292   4.331  0.2585  1.5000  0.8144
 4660SOL     OW13978   3.605   1.412   2.314 -0.2467  0.2012  0.2514
 4660SOL    HW113979   3.574   1.387   2.227  1.5407 -1.7560  0.0853
 4660SOL    HW213980   3.661   1.488   2.298 -2.3016  1.7765  0.1599
 4661SOL     OW13981   4.330   3.730   5.643  0.8605  0.0558 -0.4007
 4661SOL    HW113982   4.239   3.738   5.614  0.9009  0.3546 -0.4568
 4661SOL    HW213983   4.327   3.752   5.737  0.7719 -0.6334 -0.2376
 4662SOL     OW13984   5.852   2.736   1.712  0.3519 -0.2330  0.2732
 4662SOL    HW113985   5.848   2.646   1.744  3.2569 -0.5372  0.0664
 4662SOL    HW213986   5.942   2.747   1.682  0.4276  3.0617  1.2450
 4663SOL     OW13987   3.902   5.294   4.601 -0.3095 -0.5410  0.1827
 4663SOL    HW113988   3.829   5.308   4.541 -0.0021  0.3461  0.0026
 4663SOL    HW213989   3.886   5.208   4.639 -1.1562 -0.5849 -0.2607
 4664SOL     OW13990   3.686   0.766   3.352  0.1055 -0.0038 -0.2672
 4664SOL    HW113991   3.752   0.796   3.290  0.2450  0.5373  0.1374
 4664SOL    HW213992   3.603   0.776   3.306  0.1567  0.9273 -0.1707
 4665SOL     OW13993   1.110   2.267   5.603  0.5137 -0.2610 -0.3073
 4665SOL    HW113994   1.110   2.293   5.511 -1.8434  1.6512  0.1263
 4665SOL    HW213995   1.114   2.350   5.652 -2.9672 -0.8010  1.2072
 4666SOL     OW13996   1.903   5.714   5.233  0.0392  0.6246  0.2262
 4666SOL    HW113997   1.877   5.683   5.146  0.7456 -0.6843  0.4606
 4666SOL    HW213998   1.954   5.793   5.215  0.2254  0.3408 -0.5552
 4667SOL     OW13999   5.248   0.418   2.375 -0.1268 -0.3102 -0.4622
 4667SOL    HW114000   5.276   0.391   2.287  2.4206 -0.6418  0.3536
 4667SOL    HW214001   5.231   0.336   2.420 -0.2475 -0.1892 -0.2881
 4668SOL     OW14002   3.154   5.934   4.442  0.0940  0.6250 -0.3201
 4668SOL    HW114003   3.070   5.934   4.396 -0.7189 -0.8739  1.0916
 4668SOL    HW214004   3.145   6.002   4.509  0.2837  0.9576 -0.6286
 4669SOL     OW14005   2.668   1.057   0.845  0.3928 -0.3040  0.1286
 4669SOL    HW114006   2.608   1.131   0.852  0.6929 -0.1833  2.0367
 4669SOL    HW214007   2.755   1.097   0.846  0.5389 -0.6168  0.0492
 4670SOL     OW14008   1.097   5.078   4.423 -0.5678 -0.2144 -0.3017
 4670SOL    HW114009   1.024   5.076   4.361 -0.4989 -1.7666 -0.3847
 4670SOL    HW214010   1.113   5.171   4.440 -2.2561  0.1651 -0.6432
 4671SOL     OW14011   0.359   3.445   2.844  0.5200  0.6488  0.5282
 4671SOL    HW114012   0.392   3.534   2.848  1.3001  0.3933  0.0036
 4671SOL    HW214013   0.393   3.403   2.923  0.8256  0.5921  0.3661
 4672SOL     OW14014   4.445   4.547   2.275  0.2579  0.2729  0.6362
 4672SOL    HW114015   4.364   4.504   2.247  0.6811  0.3890 -0.8413
 4672SOL    HW214016   4.513   4.481   2.261  0.7024  0.8922 -0.1672
 4673SOL     OW14017   4.375   4.485   3.984  0.1387  0.1042 -0.7496
 4673SOL    HW114018   4.415   4.455   3.902 -0.8866  2.4819 -2.2391
 4673SOL    HW214019   4.281   4.477   3.970 -0.0495 -0.4129  0.6374
 4674SOL     OW14020   4.320   5.566   1.698  0.7336  0.4033  0.2320
 4674SOL    HW114021   4.227   5.587   1.705  1.0412  1.6102  0.8250
 4674SOL    HW214022   4.365   5.641   1.737  1.9406 -0.4448  0.5089
 4675SOL     OW14023   2.594   0.141   3.745  0.1037  0.4419  0.0335
 4675SOL    HW114024   2.564   0.145   3.836 -0.6555 -0.4261 -0.1584
 4675SOL    HW214025   2.514   0.153   3.693  0.5809  1.3015 -0.5350
 4676SOL     OW14026   1.888   2.168   0.509  0.1373 -0.0375 -0.1008
 4676SOL    HW114027   1.885   2.075   0.488 -1.2561  0.4000 -2.0951
 4676SOL    HW214028   1.797   2.192   0.527  0.5243  0.8744  0.7749
 4677SOL     OW14029   0.682   4.240   4.095 -0.1242  0.7997  0.2688
 4677SOL    HW114030   0.623   4.249   4.020  0.6302  2.0820 -0.1974
 4677SOL    HW214031   0.757   4.192   4.060 -0.4001  0.1186  0.5894
 4678SOL     OW14032   5.252   0.959   4.397 -0.1219  0.3821 -0.0860
 4678SOL    HW114033   5.252   0.865   4.380  0.0055  0.3556  0.0607
 4678SOL    HW214034   5.241   1.000   4.311  0.4496  0.2500 -0.2233
 4679SOL     OW14035   0.832   5.770   4.720  0.1614  0.2697 -0.4696
 4679SOL    HW114036   0.747   5.765   4.763 -0.2261 -0.9900 -1.3309
 4679SOL    HW214037   0.872   5.685   4.735  0.5439  0.2500 -1.5067
 4680SOL     OW14038   1.549   0.245   3.766  0.0949  0.4741  0.1130
 4680SOL    HW114039   1.597   0.316   3.810  1.4297 -0.0050 -0.5122
 4680SOL    HW214040   1.472   0.288   3.729  0.4772  1.4446  0.4006
 4681SOL     OW14041   5.351   3.227   3.706  0.2966  0.2017  0.1996
 4681SOL    HW114042   5.395   3.184   3.779  1.2375 -0.3579 -0.6743
 4681SOL    HW214043   5.393   3.313   3.700 -1.0279  0.9644  1.4367
 4682SOL     OW14044   5.793   4.076   3.472 -0.3316 -0.1886 -0.3966
 4682SOL    HW114045   5.849   4.096   3.547  1.0154  0.0725 -1.4370
 4682SOL    HW214046   5.787   4.159   3.424 -0.1610 -0.6442 -1.2190
 4683SOL     OW14047   5.502   1.739   0.292 -0.1114  0.1077  0.8131
 4683SOL    HW114048   5.435   1.739   0.360  0.0990 -0.4832  1.0309
 4683SOL    HW214049   5.490   1.656   0.246 -2.2287  1.7501 -1.8954
 4684SOL     OW14050   5.664   0.500   1.137 -0.8899  0.4734  0.2668
 4684SOL    HW114051   5.628   0.561   1.073 -0.3137 -0.6094 -1.1637
 4684SOL    HW214052   5.737   0.458   1.091 -0.5457 -0.4405  1.5943
 4685SOL     OW14053   2.649   1.758   0.126  0.2561 -0.5034 -0.3072
 4685SOL    HW114054   2.609   1.685   0.172 -0.1159  0.8473  1.6194
 4685SOL    HW214055   2.586   1.782   0.058 -0.0179 -1.3955 -0.3704
 4686SOL     OW14056   4.279   1.085   2.596  0.3074 -0.0399 -0.3907
 4686SOL    HW114057   4.253   0.993   2.604 -0.1932  0.2209  1.4271
 4686SOL    HW214058   4.355   1.094   2.653 -0.7925  1.0397  1.0059
 4687SOL     OW14059   5.222   1.015   1.952  0.2475 -0.4876 -0.0218
 4687SOL    HW114060   5.220   1.069   1.873  1.6728 -1.1677 -0.5550
 4687SOL    HW214061   5.238   1.078   2.023  4.2895 -0.3028 -0.8785
 4688SOL     OW14062   0.650   1.312   1.144 -0.3782  0.1485 -0.4603
 4688SOL    HW114063   0.618   1.304   1.054 -0.2825  1.6006 -0.6420
 4688SOL    HW214064   0.692   1.228   1.162 -0.4098 -0.1643 -1.7617
 4689SOL     OW14065   2.157   0.772   2.654  0.0587 -0.0857 -0.3011
 4689SOL    HW114066   2.111   0.835   2.709  1.1488  1.2060 -0.7977
 4689SOL    HW214067   2.229   0.739   2.709  0.1707 -0.0348 -0.4168
 4690SOL     OW14068   2.993   4.658   4.640 -0.1307 -0.5825  0.0439
 4690SOL    HW114069   3.041   4.587   4.598 -2.1749 -1.4209 -1.0093
 4690SOL    HW214070   2.961   4.620   4.722  1.8079  0.3222  1.3289
 4691SOL     OW14071   3.945   5.550   5.426 -0.2497 -0.0505 -0.7622
 4691SOL    HW114072   4.007   5.587   5.364  1.1489  0.6011  0.9364
 4691SOL    HW214073   3.915   5.625   5.477 -0.6666 -0.6895 -0.0391
 4692SOL     OW14074   5.746   1.857   0.368  0.0274 -0.3144  0.2538
 4692SOL    HW114075   5.683   1.802   0.321  1.0547  0.9025 -2.8404
 4692SOL    HW214076   5.713   1.946   0.356  1.4947  0.2045 -0.1236
 4693SOL     OW14077   4.602   1.170   2.790  0.4606 -0.1173  0.0774
 4693SOL    HW114078   4.664   1.107   2.827 -1.9884 -2.0704  1.1246
 4693SOL    HW214079   4.547   1.196   2.864  0.8196  2.6896 -0.5128
 4694SOL     OW14080   4.316   1.872   4.467 -0.1701 -0.0931  0.1539
 4694SOL    HW114081   4.339   1.863   4.375  0.2738 -0.6397  0.3111
 4694SOL    HW214082   4.393   1.841   4.514 -1.2062 -1.9952  0.6953
 4695SOL     OW14083   0.904   0.087   3.495  0.6491  0.7014  0.2802
 4695SOL    HW114084   0.990   0.098   3.534  2.1866 -2.0636 -1.9098
 4695SOL    HW214085   0.849   0.055   3.566  1.9274  0.7098  1.3173
 4696SOL     OW14086   1.850   5.565   3.344  0.0228 -0.0097 -0.3035
 4696SOL    HW114087   1.936   5.606   3.352  0.9209 -1.3635 -2.2386
 4696SOL    HW214088   1.802   5.620   3.282 -0.2713  0.3347  0.2164
 4697SOL     OW14089   3.031   1.854   4.362  0.1718 -0.3963 -0.3312
 4697SOL    HW114090   2.943   1.892   4.365  0.5589  0.4861  0.6923
 4697SOL    HW214091   3.079   1.907   4.299  0.6269  0.6603  0.8751
 4698SOL     OW14092   5.474   0.619   1.898  0.4087 -0.0422 -0.4520
 4698SOL    HW114093   5.514   0.607   1.984 -1.1139 -0.6864  0.1925
 4698SOL    HW214094   5.486   0.712   1.879 -1.8659  0.8427  1.8594
 4699SOL     OW14095   4.137   0.546   5.676 -0.6081  0.0310 -0.2325
 4699SOL    HW114096   4.050   0.583   5.690 -0.5120  0.6020 -1.0841
 4699SOL    HW214097   4.165   0.582   5.592  1.0601  1.0498  0.7085
 4700SOL     OW14098   4.652   0.129   2.959 -0.2457 -0.1823  0.5595
 4700SOL    HW114099   4.641   0.126   2.864  0.3365 -2.3412  0.5029
 4700SOL    HW214100   4.567   0.157   2.993 -1.6850 -2.9869 -0.4531
 4701SOL     OW14101   3.192   1.679   4.532 -0.0099  0.2226 -0.6614
 4701SOL    HW114102   3.280   1.714   4.539  0.6472 -1.2061 -1.3086
 4701SOL    HW214103   3.141   1.749   4.493  1.0257  0.7858 -1.0396
 4702SOL     OW14104   3.530   0.648   0.532 -0.0236  0.2035 -0.1209
 4702SOL    HW114105   3.513   0.644   0.438 -0.5033  3.4429 -0.2666
 4702SOL    HW214106   3.444   0.656   0.572  0.2799  0.8012  0.4256
 4703SOL     OW14107   0.811   1.493   0.855  0.1275 -0.0744 -0.4147
 4703SOL    HW114108   0.834   1.569   0.908 -0.1583  0.1246 -0.5718
 4703SOL    HW214109   0.794   1.529   0.768 -1.0749 -0.1600 -0.2330
 4704SOL     OW14110   5.989   0.317   5.620 -0.1757  0.2795  0.4973
 4704SOL    HW114111   6.012   0.228   5.648 -4.2978 -0.5692  1.9364
 4704SOL    HW214112   5.953   0.306   5.532  0.1747  0.6843  0.3009
 4705SOL     OW14113   5.954   5.933   3.065  0.4497 -0.2259  0.1607
 4705SOL    HW114114   6.004   5.931   2.984  0.4133 -1.5354  0.1489
 4705SOL    HW214115   5.893   6.006   3.054 -0.4471 -1.1504 -1.5536
 4706SOL     OW14116   4.747   5.691   1.928 -0.1861 -0.6905  0.0760
 4706SOL    HW114117   4.735   5.625   1.859  0.2061 -0.0735 -0.5918
 4706SOL    HW214118   4.688   5.663   1.998  0.6298 -2.2687  0.1944
 4707SOL     OW14119   0.007   0.078   0.041 -0.8860 -0.0095 -0.0591
 4707SOL    HW114120   0.082   0.030   0.078 -1.7240 -0.7650  0.7188
 4707SOL    HW214121   0.023   0.169   0.064 -0.4937 -0.2408  0.6212
 4708SOL     OW14122   4.974   5.281   2.729  0.3107  0.2380 -0.3132
 4708SOL    HW114123   4.911   5.274   2.658  0.6486 -1.2095 -0.4902
 4708SOL    HW214124   4.937   5.348   2.787  0.0541  1.4994 -1.8450
 4709SOL     OW14125   4.449   2.393   1.917  0.4322 -0.5408 -0.4079
 4709SOL    HW114126   4.373   2.398   1.976  0.9010 -0.7832  0.2256
 4709SOL    HW214127   4.482   2.483   1.915  1.5832 -0.8799  1.2830
 4710SOL     OW14128   2.109   4.546   1.557  0.0654 -0.1473  0.4392
 4710SOL    HW114129   2.129   4.616   1.495 -0.6197  1.7041  2.1853
 4710SOL    HW214130   2.022   4.515   1.532  0.9796 -1.4950 -1.2603
 4711SOL     OW14131   0.987   2.028   0.796 -0.1862 -0.8576 -0.5763
 4711SOL    HW114132   0.896   2.041   0.822 -0.3928 -3.8204  0.6680
 4711SOL    HW214133   1.018   2.114   0.770 -2.2372  1.0112  2.5281
 4712SOL     OW14134   2.366   3.196   0.244  0.1684  0.4191  0.8549
 4712SOL    HW114135   2.358   3.289   0.266  1.2075  0.5150  0.8985
 4712SOL    HW214136   2.333   3.190   0.154  0.7977  0.9771  0.5749
 4713SOL     OW14137   2.037   3.175   1.325  0.4464 -0.1568  0.1043
 4713SOL    HW114138   2.089   3.255   1.322  1.3485 -0.7234  0.3361
 4713SOL    HW214139   2.014   3.165   1.417  1.2558 -0.7403  0.2471
 4714SOL     OW14140   1.126   5.369   0.955  0.2554  0.6320 -0.3200
 4714SOL    HW114141   1.089   5.390   1.040  0.3868 -0.2795 -0.0217
 4714SOL    HW214142   1.219   5.352   0.973  0.6338  1.9957 -0.9099
 4715SOL     OW14143   4.964   2.142   3.235 -0.1583 -0.3257 -0.2750
 4715SOL    HW114144   4.871   2.167   3.235  0.1251  0.7644 -1.1332
 4715SOL    HW214145   5.011   2.225   3.237  0.8123 -0.8459 -1.0071
 4716SOL     OW14146   5.276   2.323   0.544  0.1000 -0.0936 -0.0613
 4716SOL    HW114147   5.246   2.337   0.454  0.6500  1.2907 -0.0633
 4716SOL    HW214148   5.303   2.232   0.547  1.0575  0.1148 -1.6067
 4717SOL     OW14149   4.693   3.230   4.658  0.1295 -0.7645  0.3496
 4717SOL    HW114150   4.703   3.325   4.653 -1.6506 -0.4765  1.3791
 4717SOL    HW214151   4.689   3.212   4.752  1.0485 -1.9638  0.1860
 4718SOL     OW14152   0.565   1.982   2.074  0.3270 -0.1422  0.0873
 4718SOL    HW114153   0.601   2.005   1.988 -0.1790 -0.6202 -0.2586
 4718SOL    HW214154   0.470   1.978   2.060  0.2419 -0.2508  0.6627
 4719SOL     OW14155   1.403   2.217   4.193  0.0838 -0.6253  0.4212
 4719SOL    HW114156   1.397   2.130   4.152 -2.8219 -0.1595 -0.3631
 4719SOL    HW214157   1.426   2.276   4.121 -0.3386 -0.4486  0.4254
 4720SOL     OW14158   5.189   2.272   4.383 -0.0659  0.3282  0.6877
 4720SOL    HW114159   5.104   2.286   4.343 -0.2142  0.9823  1.2095
 4720SOL    HW214160   5.188   2.180   4.412 -0.0339 -0.0864 -0.5822
 4721SOL     OW14161   0.085   5.105   3.476 -0.1480  0.4178 -0.5729
 4721SOL    HW114162   0.178   5.107   3.450  0.1030 -1.1968  0.0550
 4721SOL    HW214163   0.039   5.081   3.396  0.4394 -2.7165 -0.1013
 4722SOL     OW14164   5.678   5.113   3.195 -0.0667 -0.4552  0.3264
 4722SOL    HW114165   5.620   5.184   3.223  0.5639  0.5709 -0.8522
 4722SOL    HW214166   5.621   5.053   3.146  0.0626  1.3967 -2.2968
 4723SOL     OW14167   1.589   2.187   4.716 -0.2922  0.2076  0.2178
 4723SOL    HW114168   1.591   2.199   4.621 -0.3254  0.3518  0.2354
 4723SOL    HW214169   1.677   2.156   4.738 -0.4716 -0.4298  0.0589
 4724SOL     OW14170   4.158   0.908   5.572  0.0214  0.0590  0.1222
 4724SOL    HW114171   4.225   0.967   5.535 -1.0554  0.9574 -0.4443
 4724SOL    HW214172   4.124   0.861   5.496 -0.6632  0.3147  0.2620
 4725SOL     OW14173   3.564   5.122   3.874 -0.0930 -0.0036 -0.2799
 4725SOL    HW114174   3.654   5.142   3.849  0.4877 -1.3977  0.5759
 4725SOL    HW214175   3.510   5.169   3.811  1.2269  1.0789 -0.6367
 4726SOL     OW14176   0.166   0.594   4.546 -0.0963 -0.0436 -0.0778
 4726SOL    HW114177   0.161   0.523   4.482  2.1140 -0.3867  0.0363
 4726SOL    HW214178   0.076   0.607   4.575 -1.1053 -0.2590 -2.8096
 4727SOL     OW14179   5.403   2.783   2.816 -0.4453 -0.5055 -0.4227
 4727SOL    HW114180   5.419   2.820   2.902  1.4092 -2.1656  0.0323
 4727SOL    HW214181   5.335   2.717   2.829  1.2029 -2.1642  0.2653
 4728SOL     OW14182   2.310   5.619   4.913  0.2453 -0.5634  0.0643
 4728SOL    HW114183   2.295   5.536   4.869  0.8117 -0.7736  0.2619
 4728SOL    HW214184   2.241   5.677   4.880  0.7790 -0.6508 -1.2435
 4729SOL     OW14185   0.192   2.471   3.041  0.5949  0.6681  0.3167
 4729SOL    HW114186   0.261   2.479   2.975  2.7451  0.4532  2.3795
 4729SOL    HW214187   0.204   2.548   3.096 -2.3338  1.8101 -0.4889
 4730SOL     OW14188   2.096   2.359   2.393 -0.1410  0.6325 -0.4292
 4730SOL    HW114189   2.028   2.406   2.439 -1.1396  0.4823 -1.6913
 4730SOL    HW214190   2.104   2.276   2.440  1.3799  1.8439  1.5851
 4731SOL     OW14191   2.967   5.284   3.335 -0.3161 -1.0906  0.3382
 4731SOL    HW114192   3.026   5.275   3.260 -0.4158 -0.5586  0.1908
 4731SOL    HW214193   2.891   5.330   3.300  0.8121  1.7498  1.3316
 4732SOL     OW14194   0.073   1.528   0.699  0.4606 -0.5053 -0.0545
 4732SOL    HW114195   0.027   1.445   0.689 -0.1715 -0.1074 -0.5912
 4732SOL    HW214196   0.036   1.584   0.630  0.0990  0.5629  0.9868
 4733SOL     OW14197   4.102   1.190   5.109 -0.2735  0.0094  0.4083
 4733SOL    HW114198   4.028   1.134   5.131 -0.6236 -0.1876 -1.1192
 4733SOL    HW214199   4.173   1.130   5.088 -0.4285  0.1310 -0.5133
 4734SOL     OW14200   2.442   1.012   1.476 -0.2666 -0.1019  0.4934
 4734SOL    HW114201   2.535   1.009   1.500  0.1967 -3.4164 -1.1548
 4734SOL    HW214202   2.433   1.094   1.427  1.0176  1.7030  2.9976
 4735SOL     OW14203   3.980   0.299   3.828 -0.0380  0.8573 -0.2379
 4735SOL    HW114204   3.999   0.254   3.910 -0.1078  2.3479  0.6340
 4735SOL    HW214205   3.885   0.290   3.817  0.0423  0.2306 -0.4155
 4736SOL     OW14206   5.264   5.931   4.011 -0.5321  0.4191 -0.3758
 4736SOL    HW114207   5.351   5.904   3.980 -0.3611  2.4093 -1.9155
 4736SOL    HW214208   5.258   5.897   4.100  1.9900  0.4909 -0.0958
 4737SOL     OW14209   5.347   1.719   2.152  0.2551  0.2429 -0.4579
 4737SOL    HW114210   5.288   1.788   2.181  0.8014  0.6054 -0.1934
 4737SOL    HW214211   5.381   1.749   2.068 -0.5163 -0.3203 -0.9805
 4738SOL     OW14212   5.711   0.030   3.345 -0.0104  0.2793  0.0696
 4738SOL    HW114213   5.772   0.077   3.288 -0.3749 -0.4004 -0.9091
 4738SOL    HW214214   5.649  -0.011   3.284 -1.6722  1.2521  1.0430
 4739SOL     OW14215   4.962   0.183   3.885 -0.7317  0.5070 -0.3996
 4739SOL    HW114216   4.885   0.236   3.906 -0.1634  1.3838 -0.4948
 4739SOL    HW214217   5.036   0.239   3.904 -0.1292  0.4572 -2.3191
 4740SOL     OW14218   4.760   0.712   2.751  0.0567 -0.1303  0.3366
 4740SOL    HW114219   4.736   0.648   2.819  2.8123 -0.5325  1.0171
 4740SOL    HW214220   4.784   0.791   2.800  3.1764 -0.7758  0.0543
 4741SOL     OW14221   3.115   0.869   4.675 -0.2944  0.2956  0.2003
 4741SOL    HW114222   3.112   0.948   4.621  0.5526 -0.4108 -0.9443
 4741SOL    HW214223   3.107   0.901   4.765  0.4315  1.7267 -0.2075
 4742SOL     OW14224   5.620   0.782   3.589  0.3519  0.0477 -0.0704
 4742SOL    HW114225   5.571   0.828   3.521  0.8148 -0.8590 -1.0464
 4742SOL    HW214226   5.693   0.742   3.543  1.5783  0.7093  1.2320
 4743SOL     OW14227   0.567   0.776   5.698 -0.3456 -0.7923 -0.3901
 4743SOL    HW114228   0.536   0.828   5.772 -2.6947 -0.6339 -1.3926
 4743SOL    HW214229   0.577   0.687   5.733  2.8527  0.0124  1.1180
 4744SOL     OW14230   3.828   5.197   0.123  0.1083  0.4371  0.0402
 4744SOL    HW114231   3.742   5.188   0.164  0.0990  0.4673  0.0273
 4744SOL    HW214232   3.809   5.217   0.031  0.1266 -0.6568 -0.2151
 4745SOL     OW14233   4.700   5.075   2.043  0.2388 -0.3483 -0.0702
 4745SOL    HW114234   4.739   5.138   2.104 -1.0627 -0.5411  1.0290
 4745SOL    HW214235   4.610   5.066   2.074  0.3676 -2.7115 -0.2161
 4746SOL     OW14236   4.839   4.794   3.182 -0.0945  0.1742  0.3255
 4746SOL    HW114237   4.875   4.824   3.099 -0.3706  0.2563  0.2349
 4746SOL    HW214238   4.845   4.698   3.178 -1.8738  0.0543 -0.6126
 4747SOL     OW14239   4.308   3.410   4.664 -0.2040  0.4098  0.1069
 4747SOL    HW114240   4.399   3.424   4.689 -0.0601 -0.5002  0.1241
 4747SOL    HW214241   4.313   3.383   4.572 -0.4745  0.5082  0.0631
 4748SOL     OW14242   1.258   5.408   4.177 -0.1870  0.0872 -0.3608
 4748SOL    HW114243   1.241   5.395   4.270 -1.7153  1.7404 -0.3452
 4748SOL    HW214244   1.263   5.503   4.167  3.2879 -0.0837 -1.4843
 4749SOL     OW14245   5.841   0.574   0.436  0.3697  0.4476 -0.0938
 4749SOL    HW114246   5.835   0.582   0.531 -0.5222 -0.1177 -0.0901
 4749SOL    HW214247   5.934   0.586   0.416  0.4502  1.3957  0.7671
 4750SOL     OW14248   3.206   1.914   2.918 -0.2897 -0.4001  0.4389
 4750SOL    HW114249   3.231   1.989   2.973  0.0807 -0.3917  0.2628
 4750SOL    HW214250   3.160   1.856   2.978 -0.7134  0.0345  0.5446
 4751SOL     OW14251   5.069   1.900   1.527  0.4098  0.6826  0.9771
 4751SOL    HW114252   5.098   1.928   1.440  0.1180  1.4345  1.1181
 4751SOL    HW214253   4.976   1.921   1.529 -0.1142 -1.3943  0.6517
 4752SOL     OW14254   4.942   5.443   1.672 -0.1944 -0.0754 -0.1950
 4752SOL    HW114255   4.999   5.423   1.746  2.3198  0.6061 -1.7854
 4752SOL    HW214256   4.877   5.504   1.707 -0.5640 -1.5991  1.9184
 4753SOL     OW14257   3.563   0.772   5.096  0.2443 -0.0636  0.6161
 4753SOL    HW114258   3.496   0.730   5.149  0.2548  1.3671  1.8326
 4753SOL    HW214259   3.515   0.815   5.025  0.0336 -0.2782  0.6293
 4754SOL     OW14260   3.481   2.108   1.609  0.0357  0.7068  0.2635
 4754SOL    HW114261   3.548   2.137   1.671  1.1216 -0.6031 -0.2372
 4754SOL    HW214262   3.456   2.021   1.640 -0.3506  0.5745 -0.3989
 4755SOL     OW14263   0.468   0.022   2.620  0.0953  0.1517  0.2888
 4755SOL    HW114264   0.420  -0.040   2.565 -0.7101  2.1436 -1.3412
 4755SOL    HW214265   0.526   0.068   2.559  0.0252  1.6299  1.3091
 4756SOL     OW14266   0.718   2.604   3.259  0.3126  0.2858 -0.0649
 4756SOL    HW114267   0.776   2.666   3.216  1.3829 -1.4213 -1.2247
 4756SOL    HW214268   0.700   2.537   3.193 -2.5645  0.4265  0.4234
 4757SOL     OW14269   5.270   2.393   5.739  0.1771 -0.5760  0.1345
 4757SOL    HW114270   5.203   2.326   5.728 -1.0080  0.5918 -0.0034
 4757SOL    HW214271   5.257   2.451   5.664  0.2722  0.5559  0.9712
 4758SOL     OW14272   3.155   5.848   3.354 -1.0507  0.2873 -0.1580
 4758SOL    HW114273   3.063   5.825   3.360 -0.9075 -0.2562  0.0247
 4758SOL    HW214274   3.156   5.943   3.341 -1.7313  0.0114 -2.7901
 4759SOL     OW14275   0.226   4.837   1.448 -0.2087  0.4471  0.5234
 4759SOL    HW114276   0.320   4.829   1.468 -0.3733 -0.5559  0.9672
 4759SOL    HW214277   0.214   4.929   1.426  1.5072  0.0217 -2.7792
 4760SOL     OW14278   3.532   1.812   2.300 -0.1652 -0.7598  0.4046
 4760SOL    HW114279   3.552   1.796   2.207 -0.3540  0.6170  0.1025
 4760SOL    HW214280   3.444   1.850   2.300  0.1266 -0.0542  1.0696
 4761SOL     OW14281   4.925   3.761   4.138 -0.0238  0.4044 -0.3146
 4761SOL    HW114282   5.006   3.733   4.181  0.1922 -0.5901 -1.3190
 4761SOL    HW214283   4.857   3.746   4.204  0.5327  0.7011  0.3390
 4762SOL     OW14284   0.829   2.360   3.979 -0.2300  0.5867 -0.6901
 4762SOL    HW114285   0.895   2.370   3.910  1.6272  0.2594  0.9625
 4762SOL    HW214286   0.847   2.432   4.039 -1.4875  0.5524 -0.2479
 4763SOL     OW14287   5.180   0.663   4.352 -0.2283 -0.2853  0.2847
 4763SOL    HW114288   5.162   0.586   4.405  1.5324 -0.2905  0.9262
 4763SOL    HW214289   5.243   0.632   4.286 -2.4270 -0.3132 -1.9544
 4764SOL     OW14290   4.960   5.752   4.982 -0.1909  0.3290 -0.5294
 4764SOL    HW114291   4.985   5.659   4.988  0.5151  0.4584 -1.3378
 4764SOL    HW214292   4.935   5.764   4.891 -0.3210  0.9327 -0.4173
 4765SOL     OW14293   1.157   3.455   4.370 -0.4535 -0.1665  0.4821
 4765SOL    HW114294   1.185   3.389   4.434 -0.8412 -1.8704 -1.0391
 4765SOL    HW214295   1.105   3.407   4.306 -2.0612  1.9017  0.1067
 4766SOL     OW14296   1.990   1.069   3.328 -0.1937 -0.4383  0.5006
 4766SOL    HW114297   1.978   1.161   3.303 -0.8528 -0.7264 -0.2713
 4766SOL    HW214298   2.076   1.068   3.371  0.9918  0.1090 -1.6540
 4767SOL     OW14299   4.094   0.149   4.044  0.0769  0.1096 -0.5038
 4767SOL    HW114300   4.107   0.155   4.139 -0.1194  1.4706 -0.5403
 4767SOL    HW214301   4.065   0.059   4.030  1.3747 -0.5131  0.5648
 4768SOL     OW14302   3.534   1.620   4.747  0.3873  0.0168  0.0315
 4768SOL    HW114303   3.450   1.634   4.790  1.2368 -0.9616  2.1457
 4768SOL    HW214304   3.522   1.542   4.693 -0.2036  0.2377 -0.1662
 4769SOL     OW14305   4.428   0.366   5.987 -0.2225  0.0953 -0.1501
 4769SOL    HW114306   4.495   0.321   6.038 -0.0980  0.4169 -0.0295
 4769SOL    HW214307   4.442   0.336   5.897 -0.3573 -0.3677 -0.0171
 4770SOL     OW14308   4.534   1.627   4.433 -0.0353 -0.3430  0.6469
 4770SOL    HW114309   4.520   1.626   4.528  0.4685 -1.9161  0.7344
 4770SOL    HW214310   4.601   1.694   4.420  0.4002 -0.5903  1.4900
 4771SOL     OW14311   0.387   0.294   0.517  0.5392 -0.0278 -0.6524
 4771SOL    HW114312   0.445   0.256   0.451 -0.3144  1.4441 -2.3226
 4771SOL    HW214313   0.423   0.381   0.534  2.4152 -1.2658  3.0551
 4772SOL     OW14314   5.527   1.482   2.568  0.0455 -0.0082 -0.4067
 4772SOL    HW114315   5.570   1.567   2.579 -0.5014  0.2470 -0.2608
 4772SOL    HW214316   5.523   1.470   2.473  1.7859 -0.7216 -0.4353
 4773SOL     OW14317   1.955   5.538   3.778  0.0134 -0.1488  0.1848
 4773SOL    HW114318   1.969   5.561   3.870 -1.0441  0.2763  0.2538
 4773SOL    HW214319   2.037   5.562   3.735 -0.2541  1.7149  0.6433
 4774SOL     OW14320   3.940   3.829   0.013 -1.5373 -1.0887 -0.0952
 4774SOL    HW114321   3.863   3.865  -0.031  0.0119  0.2901 -1.8688
 4774SOL    HW214322   3.997   3.904   0.028 -1.7716 -1.5206  4.1817
 4775SOL     OW14323   3.826   1.459   3.616  0.0062  0.0751  0.1896
 4775SOL    HW114324   3.862   1.387   3.565 -1.6899 -1.1436  0.6325
 4775SOL    HW214325   3.892   1.476   3.684  1.4961  0.5758 -1.3296
 4776SOL     OW14326   3.286   1.527   5.257  0.4431  0.0179  0.2862
 4776SOL    HW114327   3.334   1.588   5.200  1.5452 -0.6638  0.4680
 4776SOL    HW214328   3.326   1.538   5.343 -0.6793  0.4490  0.7694
 4777SOL     OW14329   4.203   1.982   1.472  0.5197 -0.3712 -0.2183
 4777SOL    HW114330   4.130   1.927   1.500 -1.6952  2.9680  1.1225
 4777SOL    HW214331   4.171   2.028   1.395  1.0590  1.3036  0.5090
 4778SOL     OW14332   3.328   2.920   1.697  0.2873  0.2520  0.1595
 4778SOL    HW114333   3.394   2.964   1.751 -0.9689 -0.8352  2.7802
 4778SOL    HW214334   3.336   2.960   1.611  3.6116  0.8940  0.6532
 4779SOL     OW14335   5.035   1.659   0.992  0.3275 -0.3953  0.4318
 4779SOL    HW114336   5.060   1.676   0.901 -0.5800  0.2795  0.2841
 4779SOL    HW214337   5.043   1.745   1.035  0.8968 -0.7421  1.0272
 4780SOL     OW14338   4.684   5.504   0.553  0.1625 -0.1263 -0.4246
 4780SOL    HW114339   4.605   5.454   0.535 -0.7397  0.8822  0.5666
 4780SOL    HW214340   4.754   5.455   0.509 -0.8241 -1.6651 -0.3710
 4781SOL     OW14341   4.269   5.883   4.200 -0.2914  0.1743  0.2091
 4781SOL    HW114342   4.209   5.808   4.198 -0.2299  0.1412 -0.9243
 4781SOL    HW214343   4.332   5.861   4.270 -0.5987 -0.5699  0.2599
 4782SOL     OW14344   3.736   4.225   4.598  0.5675  0.9389  0.7141
 4782SOL    HW114345   3.670   4.292   4.579  1.1070  1.8623  1.8957
 4782SOL    HW214346   3.755   4.184   4.514  0.9105  2.9335 -0.2262
 4783SOL     OW14347   2.758   4.623   3.249 -0.1057 -0.3115  0.0186
 4783SOL    HW114348   2.677   4.620   3.198  0.7740 -0.4379 -1.4555
 4783SOL    HW214349   2.755   4.545   3.304 -0.0679 -1.4982 -1.5757
 4784SOL     OW14350   5.565   5.710   2.533  0.1063 -0.4390  0.4015
 4784SOL    HW114351   5.554   5.654   2.457  2.5292  0.6949 -0.9044
 4784SOL    HW214352   5.650   5.685   2.570 -1.0606 -1.0769  2.9137
 4785SOL     OW14353   1.680   0.572   1.347  0.4462 -0.5370  0.0608
 4785SOL    HW114354   1.648   0.653   1.308  0.0971 -0.4464  0.5292
 4785SOL    HW214355   1.739   0.601   1.417  2.1920 -0.6906 -1.2683
 4786SOL     OW14356   4.407   0.382   3.957 -0.3223 -0.4308  0.6935
 4786SOL    HW114357   4.392   0.415   3.868 -0.3237  0.6348  1.0694
 4786SOL    HW214358   4.416   0.288   3.946 -1.0820 -0.4073 -0.3435
 4787SOL     OW14359   0.982   3.550   2.538 -0.1241 -0.2270  0.3418
 4787SOL    HW114360   1.032   3.586   2.611  0.3998  0.9715 -0.5639
 4787SOL    HW214361   1.033   3.575   2.460 -0.7824 -1.2630 -0.4459
 4788SOL     OW14362   3.436   1.071   2.219 -0.3646 -0.0756 -0.0857
 4788SOL    HW114363   3.348   1.054   2.185 -0.4291 -0.2209  0.1499
 4788SOL    HW214364   3.422   1.123   2.298 -0.2217  0.1458 -0.2036
 4789SOL     OW14365   1.463   1.460   1.647 -0.0595  0.4214  0.7897
 4789SOL    HW114366   1.557   1.459   1.668 -0.1250  0.9947  1.1461
 4789SOL    HW214367   1.452   1.538   1.592 -0.3350  0.3766  0.7803
 4790SOL     OW14368   4.380   0.395   2.158  0.0092 -0.1180 -0.5480
 4790SOL    HW114369   4.425   0.329   2.211  1.5455 -0.4308 -2.1290
 4790SOL    HW214370   4.340   0.346   2.086 -0.3293  0.4886 -0.7847
 4791SOL     OW14371   4.436   0.986   3.185  0.2365  0.2608 -0.1323
 4791SOL    HW114372   4.454   1.039   3.107  0.5676  0.1858 -0.1099
 4791SOL    HW214373   4.426   0.897   3.150  1.0444  0.1175 -0.0213
 4792SOL     OW14374   0.758   2.555   4.911  0.8117 -0.4832  0.8431
 4792SOL    HW114375   0.697   2.531   4.981  1.0923  1.3611  1.8006
 4792SOL    HW214376   0.731   2.503   4.836 -2.3234  0.5868  1.0789
 4793SOL     OW14377   2.967   4.364   3.559 -0.0562 -0.1919  0.1792
 4793SOL    HW114378   3.061   4.373   3.576 -0.2476  0.2398  1.1106
 4793SOL    HW214379   2.946   4.276   3.591 -0.0312 -0.1485  0.3179
 4794SOL     OW14380   3.868   4.356   5.327  0.4388  0.7571 -0.1417
 4794SOL    HW114381   3.854   4.274   5.279  1.0762  1.6170 -1.9111
 4794SOL    HW214382   3.960   4.354   5.352  0.7013  1.3120 -1.0105
 4795SOL     OW14383   3.687   0.530   4.865 -0.4436 -0.2390 -0.0182
 4795SOL    HW114384   3.743   0.567   4.797 -0.5146 -0.3234 -0.1236
 4795SOL    HW214385   3.694   0.591   4.939 -0.4231 -0.1094 -0.1274
 4796SOL     OW14386   2.865   3.279   2.410 -0.6164 -0.0042  0.0285
 4796SOL    HW114387   2.863   3.190   2.446 -3.0902  0.3335  0.9610
 4796SOL    HW214388   2.874   3.267   2.316 -1.5569 -1.3147  0.0731
 4797SOL     OW14389   3.434   1.420   2.764  0.3100 -0.0255 -0.1014
 4797SOL    HW114390   3.423   1.482   2.691  0.4347  2.1745  1.6603
 4797SOL    HW214391   3.523   1.388   2.754  0.3759  0.3454 -0.8352
 4798SOL     OW14392   4.876   5.546   5.592  0.2829 -0.2857 -0.1211
 4798SOL    HW114393   4.881   5.554   5.496  0.5590  0.5518 -0.0467
 4798SOL    HW214394   4.783   5.535   5.610  0.3012 -1.1671 -0.5341
 4799SOL     OW14395   1.476   4.770   2.968 -0.9562 -0.2871 -0.0976
 4799SOL    HW114396   1.413   4.833   3.002  0.6086  0.2007  2.0698
 4799SOL    HW214397   1.493   4.711   3.041  1.1272 -0.3666 -0.5777
 4800SOL     OW14398   0.916   5.368   4.316 -0.6570 -0.1571  0.0685
 4800SOL    HW114399   0.907   5.276   4.291  1.0724 -0.2993 -0.1260
 4800SOL    HW214400   0.902   5.417   4.234  2.8888 -0.5251 -0.9418
 4801SOL     OW14401   3.880   4.569   2.490  0.0714  0.3427 -0.2819
 4801SOL    HW114402   3.904   4.551   2.581  0.5395  0.1096 -0.4496
 4801SOL    HW214403   3.860   4.663   2.489 -1.4815  0.0478  0.3945
 4802SOL     OW14404   2.666   2.978   4.532  0.1444 -0.3757 -0.0685
 4802SOL    HW114405   2.641   2.937   4.615  1.3173 -0.6015  0.1902
 4802SOL    HW214406   2.738   3.037   4.555 -1.6501  2.0786 -0.3962
 4803SOL     OW14407   2.649   2.051   1.941  0.1221  0.3322 -0.5841
 4803SOL    HW114408   2.691   2.118   1.996  1.5428 -1.9272  1.2764
 4803SOL    HW214409   2.721   1.997   1.910 -0.5920  1.4759 -4.9463
 4804SOL     OW14410   1.403   1.172   3.781  0.7872  0.2827  0.2444
 4804SOL    HW114411   1.341   1.235   3.816 -2.1242 -3.1776  1.9138
 4804SOL    HW214412   1.390   1.175   3.686 -1.6356  0.0331  0.5232
 4805SOL     OW14413   4.148   4.745   5.240  0.1381 -0.3721 -0.3254
 4805SOL    HW114414   4.053   4.733   5.230 -0.0356  0.4222  0.2943
 4805SOL    HW214415   4.186   4.672   5.190 -0.7896 -0.6230 -0.7001
 4806SOL     OW14416   5.314   2.066   4.828 -0.1978  0.1065 -0.1177
 4806SOL    HW114417   5.293   1.973   4.830  1.6748 -0.4380 -1.6976
 4806SOL    HW214418   5.389   2.076   4.887 -0.1790  0.5478 -0.2070
 4807SOL     OW14419   4.841   2.787   3.925 -0.3263 -0.1657  0.0750
 4807SOL    HW114420   4.763   2.840   3.907 -1.7642 -1.7299  1.3342
 4807SOL    HW214421   4.814   2.698   3.904  1.3020 -0.6911  0.1223
 4808SOL     OW14422   3.715   0.317   0.066 -0.2295 -0.0591 -0.3023
 4808SOL    HW114423   3.746   0.283  -0.018 -0.9859 -1.3543 -0.0817
 4808SOL    HW214424   3.670   0.399   0.043  0.8083  0.3446 -0.9651
 4809SOL     OW14425   4.565   3.670   0.445 -0.3179 -0.3595 -0.3519
 4809SOL    HW114426   4.624   3.644   0.515  0.1581 -0.8140 -0.9124
 4809SOL    HW214427   4.512   3.740   0.483  2.2123  1.8126 -0.5591
 4810SOL     OW14428   0.476   1.280   3.623  0.1424  0.5023  0.2723
 4810SOL    HW114429   0.434   1.204   3.663  0.7143 -0.7313 -1.3289
 4810SOL    HW214430   0.568   1.254   3.615  0.6778  2.0309  1.1550
 4811SOL     OW14431   4.562   2.654   1.913  0.1856 -0.0889 -0.1761
 4811SOL    HW114432   4.520   2.690   1.835  2.6454 -0.6158 -1.8558
 4811SOL    HW214433   4.655   2.653   1.893  0.8692 -0.8867  2.5378
 4812SOL     OW14434   3.304   2.649   4.688 -0.5157 -0.1373  0.7341
 4812SOL    HW114435   3.390   2.637   4.728 -0.1981  1.4926  0.6197
 4812SOL    HW214436   3.252   2.692   4.756 -0.6383  0.6642  0.1447
 4813SOL     OW14437   1.874   0.640   3.473  0.3218  0.2981  0.5441
 4813SOL    HW114438   1.781   0.658   3.486  0.3757  0.0172  1.4095
 4813SOL    HW214439   1.880   0.545   3.479  0.8517  0.3979  1.9385
 4814SOL     OW14440   4.097   2.309   0.519 -0.2531 -0.0530  0.1816
 4814SOL    HW114441   4.012   2.269   0.501 -0.6017  0.4557  0.6961
 4814SOL    HW214442   4.109   2.299   0.614 -0.7006  1.7291  0.4635
 4815SOL     OW14443   4.321   0.786   4.035 -0.2941  0.3348  0.0052
 4815SOL    HW114444   4.383   0.790   3.962  0.0822 -0.9464  0.2283
 4815SOL    HW214445   4.235   0.785   3.993 -0.0874 -0.1071 -0.4169
 4816SOL     OW14446   3.718   0.267   3.789  0.5407 -0.3553  0.1510
 4816SOL    HW114447   3.691   0.236   3.875 -1.2156  0.2071 -0.1741
 4816SOL    HW214448   3.668   0.346   3.774  0.6298 -0.5615 -1.4952
 4817SOL     OW14449   5.474   0.809   5.075  0.4411 -0.4251  0.1456
 4817SOL    HW114450   5.411   0.831   5.006 -0.1201  0.1926  0.8469
 4817SOL    HW214451   5.549   0.864   5.057  0.2565 -0.1920  0.0872
 4818SOL     OW14452   4.419   2.755   2.817 -0.1192 -0.2790 -0.0078
 4818SOL    HW114453   4.416   2.699   2.739 -0.9202 -0.9129  0.4687
 4818SOL    HW214454   4.420   2.844   2.782 -2.2293 -0.4991 -0.7477
 4819SOL     OW14455   2.511   0.905   4.111  0.0230  0.0842  0.1571
 4819SOL    HW114456   2.555   0.982   4.146 -1.7440  1.8232 -1.2582
 4819SOL    HW214457   2.529   0.836   4.175  1.9072  1.5551  1.3162
 4820SOL     OW14458   0.337   1.753   3.602 -0.2283  0.1028  0.0861
 4820SOL    HW114459   0.293   1.745   3.517 -1.1517 -1.3920  0.6657
 4820SOL    HW214460   0.423   1.716   3.588 -0.2830  0.1029 -0.2562
 4821SOL     OW14461   3.306   1.792   0.374 -0.0614 -0.0923  0.3299
 4821SOL    HW114462   3.355   1.722   0.416  0.0961  0.3797  0.9404
 4821SOL    HW214463   3.267   1.841   0.446 -2.6605 -1.2920 -0.1449
 4822SOL     OW14464   1.717   5.871   1.254  0.2525  0.2917  0.3486
 4822SOL    HW114465   1.669   5.788   1.249  0.1908  0.3833 -0.7512
 4822SOL    HW214466   1.791   5.853   1.313 -0.4794 -0.1667  1.1491
 4823SOL     OW14467   3.194   2.019   4.210  0.2135  0.1430  0.3671
 4823SOL    HW114468   3.274   2.019   4.263  1.0895 -1.5224 -0.8458
 4823SOL    HW214469   3.216   2.073   4.134 -0.1734  0.5010  0.5071
 4824SOL     OW14470   5.111   5.843   5.404 -0.0243 -0.1381  0.0436
 4824SOL    HW114471   5.174   5.771   5.405 -0.7081 -0.7520 -0.6489
 4824SOL    HW214472   5.165   5.922   5.406  0.8135 -0.6327 -1.6793
 4825SOL     OW14473   3.228   0.712   1.468  0.0113  0.0462 -0.0056
 4825SOL    HW114474   3.308   0.734   1.421  0.9401  0.2751  1.6413
 4825SOL    HW214475   3.221   0.617   1.462 -1.1095  0.1968 -2.4753
 4826SOL     OW14476   2.254   0.512   3.486 -0.0123  0.7768  0.1911
 4826SOL    HW114477   2.228   0.531   3.576  1.0725  2.2110  0.2513
 4826SOL    HW214478   2.237   0.419   3.474  1.0070  0.2711  2.3087
 4827SOL     OW14479   4.576   0.580   4.462  0.7889 -0.2993 -0.5662
 4827SOL    HW114480   4.508   0.602   4.397 -0.0776  0.6484  0.6060
 4827SOL    HW214481   4.599   0.664   4.501  3.3538 -0.4762 -1.5558
 4828SOL     OW14482   0.258   0.515   0.986 -0.0971 -0.0508  0.0508
 4828SOL    HW114483   0.200   0.583   1.019  0.3117  1.0152 -1.3247
 4828SOL    HW214484   0.295   0.474   1.064 -0.8946  0.8298  0.9107
 4829SOL     OW14485   4.775   1.343   4.905  0.4012  0.0189  0.4187
 4829SOL    HW114486   4.799   1.433   4.879  1.8724  0.6347  3.4731
 4829SOL    HW214487   4.858   1.303   4.932 -0.1037 -2.5984 -1.4965
 4830SOL     OW14488   0.716   0.062   4.821  0.1931  0.0761 -0.1441
 4830SOL    HW114489   0.701  -0.022   4.865  0.6067 -0.0677 -0.2703
 4830SOL    HW214490   0.630   0.088   4.789 -0.0832  0.0957  0.5947
 4831SOL     OW14491   4.351   5.788   5.768 -0.0310  0.1748  0.4090
 4831SOL    HW114492   4.390   5.866   5.729 -0.9401  0.4547  0.0309
 4831SOL    HW214493   4.343   5.808   5.861 -0.4500  0.6101  0.2777
 4832SOL     OW14494   5.461   1.454   0.226  0.5072  0.5407  0.5590
 4832SOL    HW114495   5.545   1.409   0.226 -0.4299 -1.3257 -0.1190
 4832SOL    HW214496   5.424   1.434   0.140 -0.2303  2.1736  0.4534
 4833SOL     OW14497   2.388   3.001   5.446 -0.2098 -0.3668  0.0479
 4833SOL    HW114498   2.333   3.015   5.369  0.6824  0.1358 -0.5247
 4833SOL    HW214499   2.334   3.027   5.520 -0.3225  1.4317 -0.6044
 4834SOL     OW14500   0.185   1.491   2.865  0.4830 -0.2067  0.2142
 4834SOL    HW114501   0.129   1.493   2.787 -1.0789  1.9254  1.3017
 4834SOL    HW214502   0.176   1.402   2.899 -1.8159 -0.1065  0.0194
 4835SOL     OW14503   4.296   5.640   4.498  0.5751  0.4732 -0.5480
 4835SOL    HW114504   4.378   5.653   4.449 -0.1169  0.7848 -1.6566
 4835SOL    HW214505   4.325   5.622   4.587  1.8375  3.6847 -0.1402
 4836SOL     OW14506   3.778   4.552   1.474  0.1457 -0.0514  0.0657
 4836SOL    HW114507   3.727   4.498   1.535 -0.0208 -0.1501 -0.1635
 4836SOL    HW214508   3.762   4.642   1.503  0.8169 -0.1435  0.7598
 4837SOL     OW14509   0.159   1.196   2.939 -0.3207 -0.5753  0.2164
 4837SOL    HW114510   0.245   1.159   2.920 -0.0785 -0.3130  0.7682
 4837SOL    HW214511   0.099   1.147   2.884  0.4007  0.5125 -1.6140
 4838SOL     OW14512   1.506   3.174   4.234 -0.8878 -0.0151 -0.1701
 4838SOL    HW114513   1.479   3.257   4.194  0.4211  0.4999 -0.0347
 4838SOL    HW214514   1.588   3.195   4.279  0.4882 -1.7971 -1.6909
 4839SOL     OW14515   4.907   2.450   4.468 -0.3629  0.0238 -0.3548
 4839SOL    HW114516   4.965   2.525   4.454 -1.3132  0.5117 -1.9485
 4839SOL    HW214517   4.938   2.383   4.407 -0.8835 -0.0416 -0.5604
 4840SOL     OW14518   0.145   1.688   5.027 -0.0794 -0.2922 -0.2053
 4840SOL    HW114519   0.147   1.682   5.123  0.1525  1.0911 -0.1111
 4840SOL    HW214520   0.215   1.630   4.999 -1.0535 -1.8395  0.3710
 4841SOL     OW14521   4.088   4.822   1.563  0.0759  0.1557  0.2270
 4841SOL    HW114522   4.182   4.813   1.577  0.2914 -1.1061 -1.6714
 4841SOL    HW214523   4.075   4.915   1.546  1.1184  0.2128 -0.3387
 4842SOL     OW14524   5.326   0.864   4.853 -0.7966  0.2552 -0.3819
 4842SOL    HW114525   5.339   0.825   4.767 -0.5759 -0.4974 -0.0152
 4842SOL    HW214526   5.252   0.816   4.891 -0.5226  0.1841  0.0711
 4843SOL     OW14527   5.203   0.911   0.456 -0.4390 -0.1175  0.1968
 4843SOL    HW114528   5.196   0.929   0.363  0.0321 -1.6068 -0.1653
 4843SOL    HW214529   5.218   0.996   0.497  0.9905  0.3846 -1.2748
 4844SOL     OW14530   4.387   2.105   5.287 -0.6440  0.2019  0.4252
 4844SOL    HW114531   4.328   2.136   5.355 -0.0288 -0.6122  1.3683
 4844SOL    HW214532   4.432   2.183   5.256 -1.4906  0.6873  0.3962
 4845SOL     OW14533   4.566   2.621   5.923 -0.4121  0.2521 -0.5257
 4845SOL    HW114534   4.583   2.650   6.013 -0.6193 -1.1332 -0.0257
 4845SOL    HW214535   4.633   2.555   5.906 -0.8329 -0.0315 -1.1272
 4846SOL     OW14536   5.029   1.391   4.644 -0.0705  0.3132 -0.0110
 4846SOL    HW114537   5.083   1.461   4.681 -0.7652 -0.1089  1.9650
 4846SOL    HW214538   5.091   1.322   4.621  0.3342  0.0307  1.7713
 4847SOL     OW14539   0.578   4.764   4.234  0.4507 -0.0021 -0.0009
 4847SOL    HW114540   0.579   4.706   4.310  0.3333 -0.2779 -0.2070
 4847SOL    HW214541   0.548   4.709   4.162  3.5767 -0.6214 -0.9701
 4848SOL     OW14542   0.814   2.727   0.774  0.1478 -0.1914  0.0606
 4848SOL    HW114543   0.844   2.689   0.692  0.5806  0.6739 -0.1935
 4848SOL    HW214544   0.737   2.778   0.749  1.3005  1.5184 -0.1433
 4849SOL     OW14545   2.302   1.976   4.424 -0.1011  0.2418 -0.7444
 4849SOL    HW114546   2.297   1.884   4.452  2.0420  0.3463  0.1988
 4849SOL    HW214547   2.376   2.011   4.473 -1.3056  2.6932 -0.5698
 4850SOL     OW14548   4.181   2.298   0.774 -0.2449 -0.2077  0.0102
 4850SOL    HW114549   4.178   2.368   0.840  2.2814  0.4220 -0.4479
 4850SOL    HW214550   4.247   2.237   0.806 -0.0306 -0.6554 -1.2285
 4851SOL     OW14551   0.522   0.548   5.842 -0.0160  0.0365 -0.1760
 4851SOL    HW114552   0.592   0.483   5.837  0.1240  0.1446  0.3902
 4851SOL    HW214553   0.444   0.497   5.863 -0.2554 -0.1798 -1.5082
 4852SOL     OW14554   1.261   2.564   4.516  0.2689  0.4381 -0.1329
 4852SOL    HW114555   1.208   2.506   4.572  1.6408 -0.5469  0.1986
 4852SOL    HW214556   1.239   2.537   4.426 -1.2077  1.3636 -0.0863
 4853SOL     OW14557   2.698   0.674   5.056 -0.2786  0.3647  0.2327
 4853SOL    HW114558   2.720   0.639   4.969 -0.9292  0.3572  0.0695
 4853SOL    HW214559   2.774   0.726   5.081  1.2274 -2.0077  0.9543
 4854SOL     OW14560   1.543   4.832   2.458  0.6985  0.0289  0.0434
 4854SOL    HW114561   1.559   4.793   2.544  2.1793 -0.5714 -0.4835
 4854SOL    HW214562   1.495   4.913   2.477  1.4340  0.1562  1.4649
 4855SOL     OW14563   4.527   0.525   0.324 -0.0430  0.1135  0.1985
 4855SOL    HW114564   4.432   0.515   0.335 -0.3556  1.5374 -0.9317
 4855SOL    HW214565   4.565   0.458   0.381 -1.7282 -0.6405  0.4891
 4856SOL     OW14566   4.655   5.621   5.940 -0.7162  0.1172  0.0817
 4856SOL    HW114567   4.715   5.559   5.981 -1.6954 -2.0308 -1.5138
 4856SOL    HW214568   4.569   5.579   5.946 -1.7339  2.1191  0.3913
 4857SOL     OW14569   4.907   0.670   5.680  0.3469  0.4862 -0.4912
 4857SOL    HW114570   4.984   0.650   5.733 -0.4912 -0.0253  0.5926
 4857SOL    HW214571   4.843   0.705   5.743 -1.1665 -1.4229 -0.8542
 4858SOL     OW14572   1.553   1.461   5.522  0.4833  0.1781 -0.0183
 4858SOL    HW114573   1.520   1.477   5.434 -0.0461  0.6831  0.2631
 4858SOL    HW214574   1.583   1.547   5.552  0.7902 -0.0168  0.2406
 4859SOL     OW14575   5.777   0.322   5.819 -0.3805 -0.6133  0.3190
 4859SOL    HW114576   5.805   0.236   5.850  1.4825  0.0984  0.7425
 4859SOL    HW214577   5.836   0.342   5.746 -0.7295  0.3442  0.2831
 4860SOL     OW14578   0.904   0.745   4.149 -0.5894 -1.1109 -0.7725
 4860SOL    HW114579   0.957   0.671   4.178 -1.2055 -1.0944  0.4230
 4860SOL    HW214580   0.871   0.785   4.229  0.9912  1.4568 -1.2619
 4861SOL     OW14581   5.590   1.530   3.186  0.2968  0.0253  0.2506
 4861SOL    HW114582   5.586   1.447   3.137 -0.5950  0.0241  0.3085
 4861SOL    HW214583   5.677   1.530   3.225  0.7216 -0.3718 -0.6488
 4862SOL     OW14584   1.227   3.091   5.312  0.2315 -0.1765 -0.2990
 4862SOL    HW114585   1.281   3.030   5.261  2.5546 -0.9771  2.7905
 4862SOL    HW214586   1.170   3.035   5.365 -2.1977  0.6335 -1.8740
 4863SOL     OW14587   4.256   1.189   0.159  0.5014 -0.3160  0.0089
 4863SOL    HW114588   4.236   1.283   0.152 -0.8802 -0.4596  1.4736
 4863SOL    HW214589   4.174   1.146   0.133  1.0522 -1.1282 -0.4103
 4864SOL     OW14590   0.328   2.065   5.297  0.2124  0.3244 -0.0169
 4864SOL    HW114591   0.342   2.070   5.203  0.0644 -0.9912 -0.1307
 4864SOL    HW214592   0.380   2.136   5.334  0.0422  1.0245 -1.1059
 4865SOL     OW14593   4.416   2.170   4.804 -0.1160  0.0277 -0.1083
 4865SOL    HW114594   4.358   2.201   4.874  0.8176 -0.3797  0.8820
 4865SOL    HW214595   4.497   2.147   4.849  0.5621 -0.1284 -1.3578
 4866SOL     OW14596   1.639   1.882   1.348 -0.0423 -0.4569  0.7968
 4866SOL    HW114597   1.601   1.934   1.419  0.2695  0.3059  0.4127
 4866SOL    HW214598   1.716   1.841   1.387 -0.2924 -0.6373  1.1044
 4867SOL     OW14599   4.698   5.579   4.543  0.5600 -0.0081 -0.2425
 4867SOL    HW114600   4.772   5.634   4.516  0.7620 -0.5213 -0.7611
 4867SOL    HW214601   4.641   5.576   4.467  0.5931 -0.5814 -0.2547
 4868SOL     OW14602   3.921   0.313   1.213  0.2595 -0.1876  0.6643
 4868SOL    HW114603   3.966   0.363   1.145 -1.4217  2.8339  1.5491
 4868SOL    HW214604   3.963   0.340   1.294 -0.1022 -0.9378  1.1107
 4869SOL     OW14605   2.512   3.382   1.327  0.4708 -0.1726  0.3719
 4869SOL    HW114606   2.526   3.288   1.315 -1.0892 -0.4631  0.6032
 4869SOL    HW214607   2.560   3.423   1.255  0.5699 -1.1872 -0.1584
 4870SOL     OW14608   1.524   1.362   4.133 -0.0473  0.4567 -0.1632
 4870SOL    HW114609   1.571   1.278   4.127 -1.2261 -0.2622  0.2915
 4870SOL    HW214610   1.439   1.345   4.093 -0.5794  1.2243  0.6012
 4871SOL     OW14611   4.931   2.513   0.512  0.3073 -0.1237  0.0621
 4871SOL    HW114612   4.944   2.494   0.604  1.5462  2.6831  0.5613
 4871SOL    HW214613   5.018   2.534   0.478 -0.0314 -1.5653 -1.9235
 4872SOL     OW14614   0.085   3.786   3.321 -0.0546  0.1129 -0.4702
 4872SOL    HW114615   0.144   3.714   3.296 -0.4362 -0.3971  0.0735
 4872SOL    HW214616   0.029   3.798   3.245  1.0723  0.9625 -1.2085
 4873SOL     OW14617   4.608   5.568   5.627  0.3661 -0.1464 -0.2802
 4873SOL    HW114618   4.590   5.632   5.558  2.6217  0.4441 -0.3975
 4873SOL    HW214619   4.556   5.597   5.701 -0.0048  0.7934 -0.8879
 4874SOL     OW14620   4.060   2.063   1.233  0.2908 -0.0243  0.1310
 4874SOL    HW114621   3.984   2.121   1.242  0.1181 -0.2951  0.4278
 4874SOL    HW214622   4.025   1.975   1.248  1.0524  0.0122  2.6187
 4875SOL     OW14623   4.514   3.015   2.003  0.5017 -0.7939 -0.4225
 4875SOL    HW114624   4.423   3.045   1.998  0.6736 -0.4530 -1.8075
 4875SOL    HW214625   4.508   2.920   1.992  0.2384 -0.8931  0.5219
 4876SOL     OW14626   1.081   5.157   4.691 -0.5644  0.2689  0.0705
 4876SOL    HW114627   1.062   5.109   4.610  0.4758 -0.8608  0.4730
 4876SOL    HW214628   1.003   5.145   4.745 -1.1017  0.6938 -0.5906
 4877SOL     OW14629   0.292   1.502   5.191 -0.3710 -0.1025  0.0258
 4877SOL    HW114630   0.331   1.540   5.269 -0.1632 -0.0738 -0.0911
 4877SOL    HW214631   0.222   1.445   5.223  0.3187 -0.8260  0.2898
 4878SOL     OW14632   3.004   1.086   0.715 -0.3925 -0.4324  0.0553
 4878SOL    HW114633   2.971   1.005   0.677 -2.8578  0.9178 -0.8763
 4878SOL    HW214634   3.032   1.139   0.641 -1.3144  0.5919  0.4120
 4879SOL     OW14635   4.256   5.507   0.187 -0.4543 -0.2232  0.3067
 4879SOL    HW114636   4.219   5.424   0.219 -1.6945  0.0198 -0.4386
 4879SOL    HW214637   4.180   5.560   0.165  0.2552  1.9067  2.6060
 4880SOL     OW14638   5.301   0.432   5.551 -0.0469 -0.5333  0.0428
 4880SOL    HW114639   5.353   0.402   5.476  0.3801  1.2392 -0.4315
 4880SOL    HW214640   5.319   0.526   5.555  0.3534 -0.6560  2.7045
 4881SOL     OW14641   0.171   1.337   4.621 -0.0131  0.2753  0.5353
 4881SOL    HW114642   0.224   1.392   4.563 -0.3068  0.3598  0.3424
 4881SOL    HW214643   0.082   1.346   4.587 -0.1030 -0.1109  0.6642
 4882SOL     OW14644   4.269   0.842   3.690 -0.8394 -0.3851 -0.6721
 4882SOL    HW114645   4.215   0.789   3.630 -2.3784  1.7120 -1.2702
 4882SOL    HW214646   4.288   0.922   3.641  0.2246  0.2415  0.6870
 4883SOL     OW14647   0.406   1.277   5.692 -0.3626 -0.0616 -1.0021
 4883SOL    HW114648   0.377   1.358   5.735 -0.1107 -1.5211  2.2788
 4883SOL    HW214649   0.482   1.304   5.640 -0.5878  1.8934 -0.4120
 4884SOL     OW14650   2.361   5.227   1.352 -0.2618  0.5010  0.6181
 4884SOL    HW114651   2.428   5.172   1.312 -1.2833  0.6595 -1.4702
 4884SOL    HW214652   2.406   5.310   1.371  0.5705 -0.0341  1.0114
 4885SOL     OW14653   1.206   5.947   3.611 -0.4886 -0.0309  0.2466
 4885SOL    HW114654   1.232   5.941   3.519  1.8081 -2.3192  0.9151
 4885SOL    HW214655   1.208   6.041   3.630  0.9505  0.3767 -1.5627
 4886SOL     OW14656   1.204   1.150   0.392 -0.4239 -0.0335  0.0635
 4886SOL    HW114657   1.255   1.231   0.400 -0.5459 -0.0376  0.9381
 4886SOL    HW214658   1.268   1.083   0.369 -0.3878  0.3860 -1.1240
 4887SOL     OW14659   2.517   1.124   5.361 -0.3510  0.4899 -0.3221
 4887SOL    HW114660   2.577   1.051   5.348  0.0698  0.7018  0.4224
 4887SOL    HW214661   2.431   1.082   5.374 -0.1640  0.1416 -0.2061
 4888SOL     OW14662   4.824   2.017   1.263 -0.2080 -0.9822 -0.5857
 4888SOL    HW114663   4.809   2.028   1.357  1.3848  0.6458 -0.4447
 4888SOL    HW214664   4.737   2.013   1.225 -0.9343 -3.6672  1.0981
 4889SOL     OW14665   5.090   2.324   4.989  0.5453 -0.5368  0.4096
 4889SOL    HW114666   5.106   2.311   4.896  0.8772 -0.2381  0.4218
 4889SOL    HW214667   5.017   2.384   4.993  0.1478 -1.0110  0.3460
 4890SOL     OW14668   2.745   1.264   5.461  0.3754 -0.2754  0.7611
 4890SOL    HW114669   2.669   1.220   5.422 -0.2705 -0.0280  1.6968
 4890SOL    HW214670   2.817   1.246   5.400 -1.0067  1.9507 -1.7919
 4891SOL     OW14671   5.838   4.329   1.938  0.3559 -0.2451  0.1906
 4891SOL    HW114672   5.792   4.246   1.950  2.5715 -1.7422 -0.9203
 4891SOL    HW214673   5.794   4.370   1.863  0.8862 -1.7377 -0.9955
 4892SOL     OW14674   3.233   0.966   3.213  0.0331 -0.2633 -0.7903
 4892SOL    HW114675   3.281   0.999   3.289  0.8101 -2.5515 -0.2007
 4892SOL    HW214676   3.144   0.999   3.225 -0.0494 -1.0801  1.5388
 4893SOL     OW14677   4.132   5.434   4.374 -0.3483  0.1182 -0.1707
 4893SOL    HW114678   4.072   5.406   4.444 -1.5970  0.2566 -1.1521
 4893SOL    HW214679   4.185   5.503   4.415  0.7352 -1.5346  1.3907
 4894SOL     OW14680   4.954   0.407   3.644  0.2102  0.0496  0.2370
 4894SOL    HW114681   4.934   0.422   3.736 -0.2284 -0.1708  0.1794
 4894SOL    HW214682   5.019   0.474   3.623 -1.2949  1.5690  0.1375
 4895SOL     OW14683   1.771   2.618   5.569  1.0086  0.3681  0.2742
 4895SOL    HW114684   1.707   2.601   5.499 -1.6895  1.6371  2.2291
 4895SOL    HW214685   1.822   2.692   5.538 -0.6319  1.3894 -0.1275
 4896SOL     OW14686   0.068   2.844   4.846  0.2674 -0.0983 -0.1890
 4896SOL    HW114687   0.114   2.813   4.924  1.5034 -1.1059 -1.2734
 4896SOL    HW214688   0.116   2.923   4.820  0.2381 -0.1194 -0.3052
 4897SOL     OW14689   5.275   0.169   4.160  0.7375  0.0210  0.1713
 4897SOL    HW114690   5.266   0.110   4.085  0.0792  1.0599 -0.6073
 4897SOL    HW214691   5.187   0.206   4.172  1.3889  1.7861 -0.1998
 4898SOL     OW14692   2.967   3.767   0.191  0.7906 -0.3242 -0.0816
 4898SOL    HW114693   2.928   3.699   0.247  2.2024 -1.0313  0.0715
 4898SOL    HW214694   2.939   3.849   0.232 -0.1645 -0.8008  0.2751
 4899SOL     OW14695   3.446   0.328   5.099  0.2789 -0.0772  0.6754
 4899SOL    HW114696   3.528   0.281   5.108  0.1575 -0.5458 -0.5277
 4899SOL    HW214697   3.383   0.263   5.069 -0.5140  0.3062  1.4383
 4900SOL     OW14698   3.502   5.266   2.522 -0.3567  0.3508 -0.7759
 4900SOL    HW114699   3.496   5.356   2.553 -0.7211 -0.2123  0.9514
 4900SOL    HW214700   3.596   5.247   2.520 -0.2512  0.9544 -1.7575
 4901SOL     OW14701   4.063   4.099   6.002  0.7332 -0.6899 -0.8742
 4901SOL    HW114702   4.117   4.159   6.053 -0.0893 -0.2159 -0.5505
 4901SOL    HW214703   4.105   4.098   5.915  0.8199  0.2680 -0.8539
 4902SOL     OW14704   5.442   5.534   1.892  0.0450  0.1609  0.0911
 4902SOL    HW114705   5.364   5.520   1.946 -1.2288  2.2739 -1.0466
 4902SOL    HW214706   5.486   5.449   1.890 -2.4141 -1.2172  0.4722
 4903SOL     OW14707   5.207   4.640   1.754  0.1097 -0.2360 -0.7254
 4903SOL    HW114708   5.207   4.562   1.699 -0.4552  1.1180 -2.7623
 4903SOL    HW214709   5.167   4.708   1.700 -1.7149  0.9084  1.8277
 4904SOL     OW14710   5.613   4.938   5.826  0.1606  0.4839  0.5656
 4904SOL    HW114711   5.558   4.872   5.869 -0.5682  0.8958  0.2781
 4904SOL    HW214712   5.669   4.972   5.897 -0.4493  0.5594  1.0234
 4905SOL     OW14713   5.478   1.255   0.944  0.8960  0.0110  0.2204
 4905SOL    HW114714   5.457   1.329   0.887  0.6900 -0.6169 -0.5517
 4905SOL    HW214715   5.392   1.224   0.975  1.0358  0.6178  1.2353
 4906SOL     OW14716   5.574   2.673   5.238  0.1358 -0.1634 -0.0506
 4906SOL    HW114717   5.663   2.641   5.221 -0.0220 -0.5554 -0.1659
 4906SOL    HW214718   5.586   2.755   5.286  0.5465 -1.0103  1.3485
 4907SOL     OW14719   3.545   0.163   4.249 -0.0502 -0.1806 -0.1347
 4907SOL    HW114720   3.567   0.247   4.291 -1.9544  0.1954  0.2125
 4907SOL    HW214721   3.506   0.111   4.319 -2.2716  0.0487 -1.1149
 4908SOL     OW14722   4.187   5.104   5.489 -0.4131 -0.5676  0.2301
 4908SOL    HW114723   4.143   5.098   5.404 -1.2849 -0.8513  0.6918
 4908SOL    HW214724   4.151   5.184   5.528  0.4540 -0.0901  0.0868
 4909SOL     OW14725   4.147   0.550   4.128 -0.0739 -0.1313  0.0134
 4909SOL    HW114726   4.096   0.605   4.069 -0.3411  0.7577  1.0504
 4909SOL    HW214727   4.172   0.475   4.074 -2.3072 -0.5225 -0.5741
 4910SOL     OW14728   3.699   0.668   2.467 -0.2530  1.1954 -0.2745
 4910SOL    HW114729   3.688   0.763   2.465  1.4023  1.4163 -1.5817
 4910SOL    HW214730   3.687   0.641   2.376  1.4006  0.4773 -0.3176
 4911SOL     OW14731   0.270   5.020   2.859 -0.1944  0.0457  0.0408
 4911SOL    HW114732   0.279   5.113   2.883 -0.4119  0.2123 -0.5041
 4911SOL    HW214733   0.220   5.022   2.778  0.2513 -0.5237 -0.2514
 4912SOL     OW14734   2.111   1.572   3.248  0.0921  0.2440  0.1655
 4912SOL    HW114735   2.109   1.620   3.331  0.8041  0.5917 -0.0126
 4912SOL    HW214736   2.172   1.621   3.193  2.4116 -1.9327  0.6316
 4913SOL     OW14737   4.685   0.398   5.393  0.0355 -0.0371 -0.2470
 4913SOL    HW114738   4.687   0.468   5.458  1.0689 -1.3581  1.2383
 4913SOL    HW214739   4.775   0.364   5.392 -0.8665 -2.7702  0.7962
 4914SOL     OW14740   4.117   2.435   1.482 -0.1447  0.5243 -0.1311
 4914SOL    HW114741   4.053   2.380   1.527  0.1653 -0.6448 -1.0562
 4914SOL    HW214742   4.189   2.444   1.544 -0.0322 -0.4535 -0.1105
 4915SOL     OW14743   5.751   3.082   0.372 -0.0294  0.0163  0.3859
 4915SOL    HW114744   5.688   3.021   0.411  0.0801 -0.3149  0.0522
 4915SOL    HW214745   5.829   3.075   0.428 -0.2520  0.3549  0.7421
 4916SOL     OW14746   1.344   0.691   3.482  0.3027  0.0825  0.2020
 4916SOL    HW114747   1.428   0.734   3.498  0.6625 -1.0007  1.4065
 4916SOL    HW214748   1.317   0.658   3.568 -0.0551 -1.8932 -0.5998
 4917SOL     OW14749   5.269   1.514   1.057  0.1372 -0.9307  0.2799
 4917SOL    HW114750   5.345   1.571   1.055 -0.7099  0.2657 -2.5224
 4917SOL    HW214751   5.194   1.573   1.061 -0.7224 -1.8765 -0.9464
 4918SOL     OW14752   4.465   4.647   0.842 -0.1871 -0.3065 -0.7789
 4918SOL    HW114753   4.432   4.568   0.800 -1.5908 -0.6982  0.9506
 4918SOL    HW214754   4.416   4.654   0.923  2.6507  0.1995  1.0476
 4919SOL     OW14755   1.158   3.527   3.746  0.6269  0.1770  0.0283
 4919SOL    HW114756   1.172   3.437   3.777 -2.1598 -0.2093  0.4001
 4919SOL    HW214757   1.239   3.549   3.700  1.5170 -2.4026  0.1874
 4920SOL     OW14758   3.618   1.249   2.075 -0.5089  0.7424 -0.0882
 4920SOL    HW114759   3.557   1.186   2.114 -1.2676  0.9912 -0.8387
 4920SOL    HW214760   3.699   1.200   2.064 -0.7469  0.2296  0.3754
 4921SOL     OW14761   0.834   1.113   5.069  0.1459  0.2062 -0.0045
 4921SOL    HW114762   0.879   1.183   5.117  0.4365  0.9874 -1.3727
 4921SOL    HW214763   0.767   1.081   5.130 -2.0650  3.7226 -0.2981
 4922SOL     OW14764   5.729   0.211   5.097  0.3476  0.7520 -0.1458
 4922SOL    HW114765   5.724   0.145   5.028 -0.4767 -0.6130  1.1645
 4922SOL    HW214766   5.639   0.242   5.108  0.4826  1.0071  0.2709
 4923SOL     OW14767   4.458   0.184   5.408  0.6448 -0.1862  0.1293
 4923SOL    HW114768   4.526   0.246   5.433 -0.2903  1.4433 -1.1248
 4923SOL    HW214769   4.505   0.103   5.389  2.0772  0.5361  0.4525
 4924SOL     OW14770   4.767   0.906   0.527  0.0581  0.6299 -0.3812
 4924SOL    HW114771   4.807   0.988   0.555  2.5331 -0.7421  0.4847
 4924SOL    HW214772   4.765   0.911   0.432  0.5855  1.5123 -0.3565
 4925SOL     OW14773   2.496   4.374   3.927  0.0493 -0.2301  0.0111
 4925SOL    HW114774   2.495   4.285   3.893 -1.2761  0.8819 -3.3527
 4925SOL    HW214775   2.403   4.397   3.937  0.3571  0.8124  0.6884
 4926SOL     OW14776   3.147   3.048   4.700  0.0429  0.9474  0.2611
 4926SOL    HW114777   3.132   3.020   4.791 -1.2512 -1.3522 -0.5874
 4926SOL    HW214778   3.234   3.087   4.701  0.9279 -0.9171  2.1065
 4927SOL     OW14779   5.231   0.605   2.603 -0.2717 -0.5749  0.4155
 4927SOL    HW114780   5.246   0.536   2.538 -0.5778 -0.1356 -0.1405
 4927SOL    HW214781   5.136   0.602   2.619 -0.6912  1.1223 -1.2836
 4928SOL     OW14782   5.885   2.628   0.830  0.1728  0.6055  0.3976
 4928SOL    HW114783   5.918   2.629   0.919 -1.4716 -1.2087  1.0889
 4928SOL    HW214784   5.964   2.623   0.775  1.1936  1.6743  1.7097
 4929SOL     OW14785   3.602   5.180   5.213 -0.2685 -0.0058  0.3481
 4929SOL    HW114786   3.687   5.203   5.176 -1.2718  0.3307 -1.9187
 4929SOL    HW214787   3.622   5.116   5.281  1.7637 -0.4965 -0.6316
 4930SOL     OW14788   0.966   2.436   3.729 -0.8044 -0.3781  0.0069
 4930SOL    HW114789   1.004   2.522   3.746  1.3746 -1.4436  0.8470
 4930SOL    HW214790   0.933   2.442   3.639  0.7888  0.8390 -0.5390
 4931SOL     OW14791   3.150   5.298   3.554 -0.0210 -0.6305  0.0803
 4931SOL    HW114792   3.079   5.318   3.493 -0.1112 -0.5156  0.2223
 4931SOL    HW214793   3.113   5.233   3.614 -0.6479  0.8409  1.3558
 4932SOL     OW14794   5.277   0.172   2.836 -0.6279  0.1979 -0.0153
 4932SOL    HW114795   5.216   0.098   2.832 -1.3824  0.8222 -0.2044
 4932SOL    HW214796   5.237   0.233   2.897  0.4630  0.0503  0.8838
 4933SOL     OW14797   5.339   0.820   1.004  0.2455  0.1804 -0.0417
 4933SOL    HW114798   5.338   0.888   0.936 -1.2954 -0.8272 -1.0919
 4933SOL    HW214799   5.342   0.737   0.955  1.9454 -0.5314  1.2079
 4934SOL     OW14800   1.087   3.965   5.213  0.0480  0.5248  0.4130
 4934SOL    HW114801   1.021   3.913   5.167 -0.4174  1.6187 -0.1966
 4934SOL    HW214802   1.163   3.907   5.219 -1.1052 -0.9506  1.5826
 4935SOL     OW14803   4.179   1.065   4.785 -0.0688 -0.4019 -0.8118
 4935SOL    HW114804   4.194   0.970   4.785  0.0380 -0.3852 -1.5085
 4935SOL    HW214805   4.264   1.103   4.765 -0.3520 -0.2063 -1.7055
 4936SOL     OW14806   3.983   4.399   5.897 -0.6168  0.3211  0.2692
 4936SOL    HW114807   3.961   4.306   5.889 -0.1198  0.3574 -2.1012
 4936SOL    HW214808   3.938   4.441   5.824  2.4276  1.2880 -1.2096
 4937SOL     OW14809   4.025   0.300   5.808  0.1833 -0.1624 -0.2169
 4937SOL    HW114810   4.047   0.227   5.867 -1.2683 -0.2957  0.1962
 4937SOL    HW214811   3.991   0.257   5.729 -2.5606 -0.0018  0.7689
 4938SOL     OW14812   4.270   2.760   0.262 -0.3967  0.1661  0.4249
 4938SOL    HW114813   4.198   2.712   0.304 -1.3202 -0.5255 -1.7589
 4938SOL    HW214814   4.225   2.824   0.206  0.6654 -0.0948 -0.7705
 4939SOL     OW14815   4.514   2.212   0.054 -0.0291  0.3784  0.3435
 4939SOL    HW114816   4.445   2.261   0.009  0.0518  0.4001  0.2431
 4939SOL    HW214817   4.550   2.274   0.117  0.0059  0.4173  0.2855
 4940SOL     OW14818   1.667   3.062   0.374  0.1599 -0.1486 -0.3259
 4940SOL    HW114819   1.686   2.968   0.385  0.8565 -0.1219 -1.1814
 4940SOL    HW214820   1.578   3.065   0.339  0.2498 -0.5057 -0.5870
 4941SOL     OW14821   4.483   0.585   1.348  0.5139 -0.3945 -0.3545
 4941SOL    HW114822   4.460   0.568   1.257  1.4233 -0.9831 -0.4945
 4941SOL    HW214823   4.462   0.677   1.362 -0.9398 -0.6511 -0.7375
 4942SOL     OW14824   5.563   1.574   1.243 -0.1174 -0.1226  0.4633
 4942SOL    HW114825   5.521   1.492   1.269 -0.8379 -0.1950 -0.8014
 4942SOL    HW214826   5.633   1.547   1.184  0.3952  0.1216  0.9531
 4943SOL     OW14827   0.107   2.768   4.015  0.0538  0.4634 -0.0265
 4943SOL    HW114828   0.169   2.712   3.968 -1.9454 -1.8106 -0.1603
 4943SOL    HW214829   0.021   2.730   3.995 -1.1561  1.6143  2.5419
 4944SOL     OW14830   4.355   3.594   4.274  0.0469  0.3488  0.0376
 4944SOL    HW114831   4.400   3.595   4.189  1.2498  0.0464  0.6378
 4944SOL    HW214832   4.416   3.548   4.332  0.0851  2.0945  1.4898
 4945SOL     OW14833   3.179   4.798   1.091 -0.3439  0.1979  0.7149
 4945SOL    HW114834   3.230   4.860   1.144  1.0655  1.9724 -2.4117
 4945SOL    HW214835   3.232   4.718   1.091  0.7178  0.8760  0.3149
 4946SOL     OW14836   0.236   0.869   6.012  0.2854  0.8299  0.1388
 4946SOL    HW114837   0.214   0.948   5.964 -0.1026  0.3704 -0.4567
 4946SOL    HW214838   0.329   0.854   5.992  0.3162  1.0393  0.1211
 4947SOL     OW14839   3.888   4.489   0.973 -0.4966 -0.2705  0.0184
 4947SOL    HW114840   3.810   4.442   0.941 -1.3621 -0.0622  1.7046
 4947SOL    HW214841   3.925   4.530   0.895 -1.8287 -0.7477 -0.8982
 4948SOL     OW14842   0.102   1.333   5.255 -0.5500  0.4663 -0.5034
 4948SOL    HW114843   0.091   1.267   5.323  1.1720 -1.0281 -1.5997
 4948SOL    HW214844   0.012   1.356   5.231 -1.1924 -0.2870  0.9948
 4949SOL     OW14845   3.209   0.277   4.340  0.0789  0.1350  0.4069
 4949SOL    HW114846   3.146   0.272   4.411 -0.8188 -0.6166 -0.4078
 4949SOL    HW214847   3.210   0.370   4.315  0.4607  0.4152  1.4258
 4950SOL     OW14848   0.156   0.259   0.643  0.0319  0.5178  0.1449
 4950SOL    HW114849   0.240   0.273   0.598 -0.5841  0.2075 -1.1637
 4950SOL    HW214850   0.129   0.347   0.670  0.5633  0.6800  0.1640
 4951SOL     OW14851   4.772   5.927   4.477  0.0984  0.1932  0.2203
 4951SOL    HW114852   4.796   5.935   4.569  2.0211  0.2118 -0.2426
 4951SOL    HW214853   4.677   5.915   4.478 -0.2056  2.0778  2.0964
 4952SOL     OW14854   3.377   0.792   4.906  0.5215  0.2151  0.1926
 4952SOL    HW114855   3.431   0.768   4.831  0.7052  1.2621 -0.0297
 4952SOL    HW214856   3.338   0.709   4.936  0.6343 -0.2501 -0.9029
 4953SOL     OW14857   4.769   0.682   5.426 -0.0759 -0.2232 -0.2329
 4953SOL    HW114858   4.820   0.665   5.506 -0.1712 -0.5613 -0.2412
 4953SOL    HW214859   4.699   0.741   5.455  0.6688  0.7374 -0.3482
 4954SOL     OW14860   3.433   3.709   0.109  0.0009 -0.3843  0.1468
 4954SOL    HW114861   3.403   3.790   0.067  3.1028  0.0053 -1.5389
 4954SOL    HW214862   3.449   3.734   0.200  0.6482  0.8437 -0.2892
 4955SOL     OW14863   1.364   1.010   0.882 -0.5123  0.1539  0.1222
 4955SOL    HW114864   1.435   1.060   0.921 -0.4052 -0.4212  0.6764
 4955SOL    HW214865   1.368   1.031   0.788 -0.1760  0.8053  0.2805
 4956SOL     OW14866   3.636   0.605   4.360 -0.5792 -0.0710  0.2552
 4956SOL    HW114867   3.712   0.574   4.409 -0.3846 -0.0491 -0.0355
 4956SOL    HW214868   3.574   0.532   4.364 -0.7953  0.1404  1.0222
 4957SOL     OW14869   4.387   5.332   2.117  0.3388 -0.1853  0.4150
 4957SOL    HW114870   4.324   5.370   2.055  1.3651  1.4921  0.3591
 4957SOL    HW214871   4.437   5.269   2.065 -0.0975 -0.2208  0.0323
 4958SOL     OW14872   0.586   2.525   5.142 -0.3778 -0.8378 -0.2424
 4958SOL    HW114873   0.589   2.456   5.208  1.7105 -1.4274 -0.8793
 4958SOL    HW214874   0.572   2.606   5.192  0.6169 -1.3307  0.8749
 4959SOL     OW14875   5.521   2.089   5.194 -0.1790  0.8970  0.4150
 4959SOL    HW114876   5.547   2.045   5.275  0.3505  2.6792  1.2722
 4959SOL    HW214877   5.442   2.138   5.218 -1.2645 -0.2133 -0.7397
 4960SOL     OW14878   5.787   5.500   4.011  0.2236  0.7815  0.6988
 4960SOL    HW114879   5.844   5.436   4.054 -0.5682  0.0732  0.7066
 4960SOL    HW214880   5.774   5.465   3.923 -1.1029  0.3596  1.0529
 4961SOL     OW14881   4.658   0.172   0.917  0.5205  0.1881  0.3269
 4961SOL    HW114882   4.688   0.231   0.986  1.0826  1.7967 -1.2199
 4961SOL    HW214883   4.700   0.204   0.838  0.5642 -2.1094 -0.6710
 4962SOL     OW14884   1.478   0.095   4.467 -0.0233 -0.6006  0.0051
 4962SOL    HW114885   1.515   0.041   4.397  0.4977 -0.1006 -0.1109
 4962SOL    HW214886   1.384   0.093   4.452  0.1006 -0.3153 -0.8492
 4963SOL     OW14887   4.074   5.773   0.001  0.4248  0.2991 -0.0698
 4963SOL    HW114888   4.168   5.756   0.008  0.4227  0.3613  0.1201
 4963SOL    HW214889   4.034   5.722   0.072  0.4166  1.0466  0.4833
 4964SOL     OW14890   4.829   4.510   3.595  0.3188 -0.4543 -0.1932
 4964SOL    HW114891   4.748   4.544   3.555  1.2010  2.1336  0.0131
 4964SOL    HW214892   4.899   4.556   3.550  1.5477 -0.7654  1.3164
 4965SOL     OW14893   4.211   3.539   3.339  0.5408 -0.2681 -0.2338
 4965SOL    HW114894   4.278   3.481   3.374  0.0897  0.6805  2.3999
 4965SOL    HW214895   4.131   3.487   3.339  0.4299 -0.1138  0.7436
 4966SOL     OW14896   5.014   0.859   4.257 -0.1161 -0.4546 -0.6986
 4966SOL    HW114897   5.063   0.932   4.219  0.7066 -0.8295 -0.3738
 4966SOL    HW214898   5.078   0.788   4.266 -0.3464 -0.4810  1.1356
 4967SOL     OW14899   5.498   1.850   1.143 -0.3412  0.0657  0.2614
 4967SOL    HW114900   5.502   1.924   1.202  1.0294  0.5551 -0.4077
 4967SOL    HW214901   5.555   1.784   1.182 -0.3092 -0.0312  0.0549
 4968SOL     OW14902   4.646   1.847   1.747 -0.6035  0.4160 -0.4487
 4968SOL    HW114903   4.640   1.804   1.662 -0.2645 -0.1407 -0.1979
 4968SOL    HW214904   4.678   1.779   1.806  0.6191  1.1869 -0.1860
 4969SOL     OW14905   3.239   1.467   4.725  0.0811  0.8410  0.1212
 4969SOL    HW114906   3.256   1.538   4.787 -2.7631  0.7163  1.2216
 4969SOL    HW214907   3.243   1.508   4.639  0.5477  1.8628  0.6126
 4970SOL     OW14908   2.977   1.339   3.499  0.0875 -0.0368  0.0903
 4970SOL    HW114909   2.922   1.263   3.478  0.4725  0.0774 -1.4997
 4970SOL    HW214910   2.985   1.338   3.594 -1.8350 -0.6226  0.2767
 4971SOL     OW14911   4.798   1.426   0.250 -0.0075 -0.0414  0.2365
 4971SOL    HW114912   4.855   1.351   0.231  2.8390  1.8878  0.4999
 4971SOL    HW214913   4.836   1.498   0.200 -2.7251  1.2695 -0.1222
 4972SOL     OW14914   0.186   5.592   4.202  0.0029 -0.6379 -0.4232
 4972SOL    HW114915   0.115   5.638   4.248 -0.4151 -1.2317 -0.4622
 4972SOL    HW214916   0.167   5.608   4.109  0.9181  0.6685 -0.4132
 4973SOL     OW14917   3.025   2.140   5.232  0.1079  0.1244 -0.4755
 4973SOL    HW114918   2.951   2.105   5.283 -0.9834 -1.0420 -2.7016
 4973SOL    HW214919   3.023   2.090   5.151  1.4894  2.1755 -1.8532
 4974SOL     OW14920   3.270   1.315   1.971 -0.2163  0.3013 -0.2951
 4974SOL    HW114921   3.363   1.307   1.951 -0.0214  1.3695  0.0972
 4974SOL    HW214922   3.247   1.403   1.942 -0.8121  0.4823  0.6794
 4975SOL     OW14923   4.124   5.607   5.235  0.2869  0.8021 -0.2798
 4975SOL    HW114924   4.178   5.632   5.160  1.9286 -0.5014  0.3892
 4975SOL    HW214925   4.163   5.654   5.309  0.7664 -0.4238  0.2747
 4976SOL     OW14926   3.461   2.213   3.788  0.0708 -0.2763 -0.0682
 4976SOL    HW114927   3.401   2.166   3.730  1.4375 -1.0559 -0.8872
 4976SOL    HW214928   3.545   2.212   3.743  1.0438 -0.3614  1.6348
 4977SOL     OW14929   1.365   2.500   5.817 -0.1121  0.0812 -0.1941
 4977SOL    HW114930   1.315   2.572   5.780 -0.9620 -0.4634 -0.1229
 4977SOL    HW214931   1.365   2.516   5.912  0.6096  0.5454 -0.2569
 4978SOL     OW14932   5.094   3.771   5.332 -0.1799  0.2228 -0.1568
 4978SOL    HW114933   5.157   3.759   5.403  0.6858  1.8354 -0.6003
 4978SOL    HW214934   5.009   3.763   5.374  0.3201  0.1368  0.8739
 4979SOL     OW14935   4.937   4.457   1.674 -0.7040  0.3137  0.5918
 4979SOL    HW114936   4.864   4.488   1.727  0.4956  0.8373  2.0033
 4979SOL    HW214937   4.908   4.373   1.640 -2.0083  0.5694  1.0317
 4980SOL     OW14938   3.731   1.680   1.469 -0.8712  0.0253  0.2091
 4980SOL    HW114939   3.740   1.663   1.563 -0.4400 -0.0470  0.1583
 4980SOL    HW214940   3.641   1.655   1.448 -2.3862  3.7867  1.3765
 4981SOL     OW14941   4.388   3.229   5.078  0.0125 -0.3287 -0.1606
 4981SOL    HW114942   4.297   3.223   5.050 -1.0387 -1.7688  3.0638
 4981SOL    HW214943   4.428   3.149   5.043 -0.4873 -0.6779  0.0505
 4982SOL     OW14944   2.629   2.372   4.774  0.6906  0.0187 -0.0140
 4982SOL    HW114945   2.606   2.462   4.797  1.8418  0.1210  0.8246
 4982SOL    HW214946   2.571   2.317   4.827  0.1860  0.2664 -0.3124
 4983SOL     OW14947   3.210   5.094   0.357 -0.1573  0.1429  0.8497
 4983SOL    HW114948   3.156   5.016   0.352  0.5511 -0.3005 -0.1652
 4983SOL    HW214949   3.202   5.134   0.270  1.4277 -0.1476  0.5402
 4984SOL     OW14950   4.538   3.459   4.443 -0.4896  0.0007  0.4229
 4984SOL    HW114951   4.550   3.478   4.536 -0.0464 -0.0545  0.3792
 4984SOL    HW214952   4.599   3.388   4.425 -1.0731 -0.4732  0.2482
 4985SOL     OW14953   0.715   2.437   1.006  0.0234 -0.1932  0.8026
 4985SOL    HW114954   0.737   2.431   0.913 -0.7719 -1.6064  0.6761
 4985SOL    HW214955   0.750   2.522   1.033 -0.7002  0.7581 -1.0397
 4986SOL     OW14956   4.034   2.888   5.751  0.2038  0.6064  1.2138
 4986SOL    HW114957   3.978   2.810   5.754 -1.8910  2.0102  1.3364
 4986SOL    HW214958   4.102   2.867   5.687 -1.9534 -0.3206 -0.9503
 4987SOL     OW14959   2.771   5.700   0.938  0.2987  0.1791  0.1286
 4987SOL    HW114960   2.680   5.678   0.959 -0.1068 -0.6827 -2.1796
 4987SOL    HW214961   2.802   5.625   0.887  2.2481  0.5613  0.6976
 4988SOL     OW14962   3.974   0.560   0.509 -0.4194 -0.3298 -0.2135
 4988SOL    HW114963   4.026   0.639   0.494 -2.2707  0.5492 -2.7203
 4988SOL    HW214964   4.015   0.494   0.453 -2.0536  0.4678 -2.4948
 4989SOL     OW14965   4.829   0.552   0.321 -0.5840 -0.2408  0.0674
 4989SOL    HW114966   4.736   0.553   0.343 -0.5139  1.5364  0.4114
 4989SOL    HW214967   4.834   0.495   0.243 -1.9489 -0.3298  0.0176
 4990SOL     OW14968   1.400   2.336   0.303 -0.1072 -0.1360 -0.0594
 4990SOL    HW114969   1.424   2.244   0.317  1.7254  0.3528  0.2758
 4990SOL    HW214970   1.304   2.335   0.297 -0.0704 -2.2379 -1.4151
 4991SOL     OW14971   5.013   2.024   5.388  0.1276 -0.0254 -0.3095
 4991SOL    HW114972   5.048   1.946   5.432 -0.1931 -0.6350 -1.0963
 4991SOL    HW214973   5.080   2.091   5.401  0.3201 -0.3679  0.5510
 4992SOL     OW14974   5.771   5.325   3.802 -0.4881 -0.1710  0.4287
 4992SOL    HW114975   5.833   5.280   3.744 -1.0235 -0.3236 -0.0314
 4992SOL    HW214976   5.685   5.293   3.774 -0.8580  0.9314  0.2907
 4993SOL     OW14977   4.760   0.996   4.215 -0.4466  0.4348  0.7077
 4993SOL    HW114978   4.775   1.088   4.197 -0.9705  0.1893 -1.1444
 4993SOL    HW214979   4.846   0.963   4.242  0.1156  1.1384 -0.1592
 4994SOL     OW14980   2.506   5.245   2.768 -0.1443  0.6055 -0.5519
 4994SOL    HW114981   2.593   5.233   2.729 -0.0489 -3.0714  0.3621
 4994SOL    HW214982   2.509   5.193   2.848 -2.7681  1.5527  0.2528
 4995SOL     OW14983   3.961   2.711   5.176 -0.5246 -0.0264  0.2552
 4995SOL    HW114984   3.883   2.680   5.223 -0.8523  1.1951  0.5669
 4995SOL    HW214985   3.933   2.717   5.085 -0.2382 -1.2883  0.0631
 4996SOL     OW14986   0.687   1.624   0.583 -0.2119 -0.4624  0.0185
 4996SOL    HW114987   0.681   1.710   0.626  1.4856 -0.4275  0.2673
 4996SOL    HW214988   0.701   1.644   0.491 -1.9553 -0.5249 -0.2958
 4997SOL     OW14989   1.675   0.639   4.274  0.0802  0.1716  0.0632
 4997SOL    HW114990   1.627   0.720   4.255 -1.3779 -0.5224  0.5963
 4997SOL    HW214991   1.767   0.661   4.260 -0.3315  1.7644 -0.3183
 4998SOL     OW14992   1.864   3.671   0.042  0.2239 -0.4434 -0.8484
 4998SOL    HW114993   1.931   3.606   0.017  1.6265  1.2052 -1.5631
 4998SOL    HW214994   1.781   3.632   0.014  0.7979 -2.6741  0.2855
 4999SOL     OW14995   4.963   2.331   4.220  0.2477  0.0534 -0.2184
 4999SOL    HW114996   4.939   2.414   4.178 -0.5559  0.4958  1.0621
 4999SOL    HW214997   4.932   2.264   4.159  0.7365  0.6779 -1.1803
 5000SOL     OW14998   3.298   1.187   5.877 -0.2648 -0.1023  0.5275
 5000SOL    HW114999   3.331   1.263   5.829 -0.9774  0.3864  0.7967
 5000SOL    HW215000   3.369   1.123   5.873 -0.0529  0.1912 -0.5804
 5001SOL     OW15001   5.789   4.168   0.183  0.0864  0.2606 -0.2305
 5001SOL    HW115002   5.720   4.140   0.124 -0.3420  0.5541  0.1238
 5001SOL    HW215003   5.803   4.093   0.241 -0.1426  0.3016 -0.1192
 5002SOL     OW15004   5.350   2.297   5.150 -0.5401  0.0641  0.3248
 5002SOL    HW115005   5.270   2.321   5.103 -0.5250 -1.2610 -0.4066
 5002SOL    HW215006   5.414   2.279   5.082  0.0648  0.0151  0.8902
 5003SOL     OW15007   0.323   0.163   2.326  0.1945  0.6515 -0.0138
 5003SOL    HW115008   0.369   0.079   2.322 -0.6112  0.1508  0.9260
 5003SOL    HW215009   0.284   0.166   2.413  1.3727  2.6443  0.5358
 5004SOL     OW15010   4.049   5.343   5.842 -0.4052  0.2719 -0.0416
 5004SOL    HW115011   4.097   5.269   5.881  0.3524  0.5664 -0.4020
 5004SOL    HW215012   4.117   5.401   5.810 -1.0143  0.7055 -0.5619
 5005SOL     OW15013   3.664   5.392   3.384  0.2950  0.7017  0.0629
 5005SOL    HW115014   3.679   5.456   3.314  2.4783  0.7668  0.5131
 5005SOL    HW215015   3.576   5.412   3.416 -1.4130 -0.2420 -3.5260
 5006SOL     OW15016   0.732   4.655   4.872  0.2089  0.0232  0.2671
 5006SOL    HW115017   0.797   4.628   4.807 -0.0976 -0.2563  0.0759
 5006SOL    HW215018   0.652   4.670   4.822  0.2788  0.9382  0.4247
 5007SOL     OW15019   0.466   2.188   4.866  0.1704 -0.0054 -0.1880
 5007SOL    HW115020   0.484   2.282   4.865 -0.3904  0.1504  1.4557
 5007SOL    HW215021   0.402   2.174   4.796  2.2300  0.3590 -2.2385
 5008SOL     OW15022   5.377   2.795   3.690 -0.1935 -0.6246 -0.3420
 5008SOL    HW115023   5.288   2.808   3.722 -0.2228 -0.3692 -0.5191
 5008SOL    HW215024   5.432   2.850   3.746 -0.3634  0.5965 -1.3304
 5009SOL     OW15025   5.424   0.542   0.316 -0.2837 -0.3886 -0.3777
 5009SOL    HW115026   5.436   0.631   0.282 -1.7884  0.2190  0.5881
 5009SOL    HW215027   5.352   0.506   0.264 -1.2651 -0.1635  0.7770
 5010SOL     OW15028   2.898   3.634   4.470 -0.3643 -0.1390  0.0299
 5010SOL    HW115029   2.824   3.692   4.451 -1.1586 -0.6041  1.5340
 5010SOL    HW215030   2.911   3.585   4.389 -0.8481  0.8787 -0.6799
 5011SOL     OW15031   0.921   2.466   3.043  0.4101  0.3472  0.0740
 5011SOL    HW115032   0.901   2.553   3.008  1.8978  0.4135 -0.7015
 5011SOL    HW215033   0.979   2.483   3.117  1.6634  0.0066 -0.7950
 5012SOL     OW15034   3.875   1.480   0.042 -0.6478  0.4969  0.1886
 5012SOL    HW115035   3.904   1.558   0.090 -2.7940  1.2117  0.4083
 5012SOL    HW215036   3.835   1.425   0.108  1.8441 -1.4314  0.2572
 5013SOL     OW15037   4.469   2.611   5.039 -0.3199 -0.5575  0.3785
 5013SOL    HW115038   4.458   2.562   4.958 -0.6152  1.1040 -0.6387
 5013SOL    HW215039   4.556   2.649   5.034 -0.1319 -0.8619  1.1045
 5014SOL     OW15040   1.795   1.933   5.755  0.1205  0.0142 -0.1120
 5014SOL    HW115041   1.776   2.022   5.726  0.7500  0.3442  0.4550
 5014SOL    HW215042   1.891   1.928   5.756  0.1024 -0.3010  0.9149
 5015SOL     OW15043   0.047   3.620   0.766  0.2635 -0.4018 -0.2215
 5015SOL    HW115044  -0.025   3.567   0.801 -0.3311  0.1816 -0.5136
 5015SOL    HW215045   0.009   3.708   0.757  1.5042  0.3038  1.1626
 5016SOL     OW15046   5.426   0.167   0.573 -0.4836  0.0350 -0.3258
 5016SOL    HW115047   5.457   0.141   0.486  0.6846  1.5982 -0.4000
 5016SOL    HW215048   5.490   0.129   0.634  1.3719  2.7570 -0.4464
 5017SOL     OW15049   5.842   4.394   5.600 -0.2066 -0.1002  0.2957
 5017SOL    HW115050   5.846   4.387   5.504  1.5548  1.0350  0.2433
 5017SOL    HW215051   5.846   4.488   5.617 -0.4588 -0.2951  1.5005
 5018SOL     OW15052   1.426   1.641   0.076  0.5492 -0.5131  0.2337
 5018SOL    HW115053   1.417   1.574   0.008  1.3760  0.2098 -0.6243
 5018SOL    HW215054   1.357   1.622   0.139  0.5603 -1.9692 -0.1603
 5019SOL     OW15055   4.725   2.979   1.019 -0.2933  0.4892 -0.1271
 5019SOL    HW115056   4.810   3.020   1.002  0.9939 -1.2144  1.6482
 5019SOL    HW215057   4.690   3.028   1.093  0.7685 -0.8130  1.3197
 5020SOL     OW15058   3.440   3.772   4.096  0.4711 -0.2673  0.4763
 5020SOL    HW115059   3.421   3.805   4.008 -0.8211  0.8736  1.1421
 5020SOL    HW215060   3.424   3.678   4.091  0.5481 -0.2345 -0.5370
 5021SOL     OW15061   1.118   3.102   3.526  0.0564  0.5443  0.2269
 5021SOL    HW115062   1.155   3.187   3.504  0.8225  0.0349 -0.4887
 5021SOL    HW215063   1.194   3.046   3.543 -0.4433  0.0635  0.9520
 5022SOL     OW15064   4.623   2.014   2.447 -0.7668 -0.1076  0.4821
 5022SOL    HW115065   4.638   1.975   2.360 -3.5050 -2.7451  1.0078
 5022SOL    HW215066   4.625   2.108   2.432 -0.5772 -0.4752 -2.3578
 5023SOL     OW15067   6.023   1.603   5.847  0.0257 -0.1810  0.1663
 5023SOL    HW115068   5.941   1.652   5.843  0.7265  0.9892 -1.4024
 5023SOL    HW215069   5.998   1.512   5.834 -1.0888  0.0644  0.4982
 5024SOL     OW15070   4.251   4.925   0.856  0.1881  0.4684  0.3678
 5024SOL    HW115071   4.284   4.940   0.768 -0.1954  0.0034  0.1466
 5024SOL    HW215072   4.330   4.927   0.911  0.6232 -0.7778 -0.1792
 5025SOL     OW15073   5.791   0.875   3.151 -0.5083  0.0880  0.1023
 5025SOL    HW115074   5.780   0.887   3.056 -2.3318 -0.0958  0.2541
 5025SOL    HW215075   5.773   0.782   3.165 -0.4784  0.1680  0.6768
 5026SOL     OW15076   4.194   2.625   5.279 -0.0889  0.8616  0.0453
 5026SOL    HW115077   4.233   2.588   5.200  1.1830  0.0805  0.9866
 5026SOL    HW215078   4.104   2.645   5.255 -0.2801 -1.1117 -1.0613
 5027SOL     OW15079   2.175   4.949   1.007  0.0644  0.6438  0.4819
 5027SOL    HW115080   2.262   4.909   1.015  0.3439  1.1961  0.2864
 5027SOL    HW215081   2.155   4.979   1.096  0.0475  0.4502  0.5421
 5028SOL     OW15082   3.179   5.288   5.018  0.1562  0.1268 -0.5624
 5028SOL    HW115083   3.231   5.358   4.979 -0.5301  0.0369 -1.7032
 5028SOL    HW215084   3.240   5.242   5.076  0.4852  1.9467  0.5824
 5029SOL     OW15085   1.276   3.082   4.919  0.5356 -0.5613 -0.0204
 5029SOL    HW115086   1.214   3.028   4.869 -2.6013  2.4172  0.3193
 5029SOL    HW215087   1.321   3.134   4.852  0.5262 -0.6621 -0.1065
 5030SOL     OW15088   3.956   1.983   5.895  0.2766  0.3822 -0.5190
 5030SOL    HW115089   4.048   1.961   5.910  0.1770  0.5025  0.3336
 5030SOL    HW215090   3.931   2.032   5.973 -0.7489 -0.3705 -0.3695
 5031SOL     OW15091   3.326   2.428   0.708 -0.0817 -0.2935  0.3651
 5031SOL    HW115092   3.398   2.476   0.749  0.3534  0.9614 -1.7189
 5031SOL    HW215093   3.255   2.492   0.702 -0.4179 -0.7045 -0.1104
 5032SOL     OW15094   3.976   3.044   1.019 -0.0791  0.7591  0.2366
 5032SOL    HW115095   3.966   3.007   0.931  0.0974 -0.3277  0.6569
 5032SOL    HW215096   3.917   2.992   1.074 -0.3306  1.5532  0.7360
 5033SOL     OW15097   1.502   0.769   2.823 -0.5403 -0.1419  0.2774
 5033SOL    HW115098   1.550   0.757   2.741 -0.8289  0.6164 -0.0103
 5033SOL    HW215099   1.499   0.681   2.862  1.0719 -0.2108  0.3000
 5034SOL     OW15100   3.671   0.298   2.182 -0.4579 -0.6414  0.2353
 5034SOL    HW115101   3.603   0.244   2.140 -0.2661 -0.6952 -0.0121
 5034SOL    HW215102   3.629   0.382   2.196 -2.2629 -1.9999  4.6104
 5035SOL     OW15103   0.973   5.430   5.961  0.3706  0.0874 -0.2471
 5035SOL    HW115104   1.021   5.347   5.956  0.2497 -0.3324  3.2242
 5035SOL    HW215105   0.892   5.413   5.913  0.9073 -1.3751 -0.7101
 5036SOL     OW15106   4.654   5.515   0.933  0.5584 -0.2267  0.1710
 5036SOL    HW115107   4.617   5.434   0.899  1.0651 -0.6491  0.6160
 5036SOL    HW215108   4.743   5.517   0.899 -0.0288  1.1077 -1.4328
 5037SOL     OW15109   5.634   5.909   0.114 -0.2306  0.6487  0.3343
 5037SOL    HW115110   5.680   5.929   0.196  1.0280  0.1807 -0.2176
 5037SOL    HW215111   5.632   5.813   0.112  0.3343  0.6413 -0.4680
 5038SOL     OW15112   0.347   3.645   0.108 -0.1655 -0.1077  0.3575
 5038SOL    HW115113   0.274   3.669   0.165 -1.5046  0.0284 -1.3438
 5038SOL    HW215114   0.322   3.678   0.022  1.8723 -0.1622 -0.3044
 5039SOL     OW15115   1.894   3.439   5.690  0.4745 -0.0871 -0.0775
 5039SOL    HW115116   1.817   3.391   5.662 -0.5350  0.6227  1.3730
 5039SOL    HW215117   1.871   3.531   5.678  0.8145  0.1583  1.0271
 5040SOL     OW15118   3.404   4.135   4.296 -0.0736 -0.3118 -0.4310
 5040SOL    HW115119   3.494   4.127   4.264 -0.4191 -0.0710 -1.4892
 5040SOL    HW215120   3.400   4.076   4.371  1.5579  1.2358  0.9718
 5041SOL     OW15121   4.978   4.489   4.491  0.5384  0.1991 -0.3991
 5041SOL    HW115122   5.000   4.530   4.574  0.6879  0.2516 -0.4630
 5041SOL    HW215123   4.883   4.499   4.483  0.5315  0.2415 -0.2612
 5042SOL     OW15124   0.460   0.046   3.578  0.3700  0.0620 -0.3538
 5042SOL    HW115125   0.408   0.009   3.649  0.5532  0.2424 -0.1264
 5042SOL    HW215126   0.551   0.036   3.606  0.4605 -0.2190 -0.7349
 5043SOL     OW15127   4.341   5.837   0.045 -0.2809 -0.3429 -0.7151
 5043SOL    HW115128   4.320   5.828   0.138 -0.3590  1.5158 -0.5134
 5043SOL    HW215129   4.436   5.850   0.043 -0.2542 -0.5640 -0.9176
 5044SOL     OW15130   0.425   5.775   4.166  0.2274  0.7429  0.0662
 5044SOL    HW115131   0.386   5.688   4.163  2.1364 -0.1883  0.8623
 5044SOL    HW215132   0.357   5.830   4.207 -1.2978 -0.1400 -1.1473
 5045SOL     OW15133   0.859   1.473   2.852  0.0887  0.3116  0.2093
 5045SOL    HW115134   0.837   1.396   2.799 -0.5494 -0.0304  0.9476
 5045SOL    HW215135   0.955   1.475   2.852  0.1603 -1.1873  1.1205
 5046SOL     OW15136   2.841   2.940   1.737  0.4484  0.0994 -0.4954
 5046SOL    HW115137   2.929   2.974   1.755  0.3987 -0.1037  0.1390
 5046SOL    HW215138   2.830   2.866   1.797  0.6386 -1.2175 -2.0281
 5047SOL     OW15139   4.120   0.695   1.360  0.5884  0.1570 -0.5080
 5047SOL    HW115140   4.089   0.605   1.353 -0.1461  0.4227 -0.7367
 5047SOL    HW215141   4.128   0.710   1.455 -1.8178  0.6756 -0.3327
 5048SOL     OW15142   5.493   0.852   3.371 -0.2078 -0.4088 -0.1675
 5048SOL    HW115143   5.511   0.783   3.308  0.5159  0.0525 -0.4798
 5048SOL    HW215144   5.525   0.932   3.329 -1.4101  0.1854  0.0134
 5049SOL     OW15145   1.830   0.100   4.105  0.6002  0.0993 -0.0209
 5049SOL    HW115146   1.885   0.024   4.123 -0.0717 -0.6484 -1.0378
 5049SOL    HW215147   1.816   0.140   4.191  0.6172 -1.1693  0.5968
 5050SOL     OW15148   3.787   2.154   5.218  0.7650  0.1424 -0.3654
 5050SOL    HW115149   3.736   2.116   5.146 -1.6257  0.6764  0.9191
 5050SOL    HW215150   3.818   2.238   5.184  0.1405  0.1352 -0.9655
 5051SOL     OW15151   2.903   1.086   1.529 -0.6543 -0.6666  0.1541
 5051SOL    HW115152   2.973   1.036   1.487 -0.2592 -0.5588  0.6737
 5051SOL    HW215153   2.848   1.116   1.457  0.3469  0.0256 -0.3427
 5052SOL     OW15154   2.415   2.609   2.849 -0.0168 -0.4085 -0.0293
 5052SOL    HW115155   2.405   2.622   2.755 -0.6517 -1.0025 -0.0469
 5052SOL    HW215156   2.411   2.698   2.885 -1.0433 -0.2690 -0.4495
 5053SOL     OW15157   3.683   1.372   5.429 -0.4276 -0.1173  0.5042
 5053SOL    HW115158   3.724   1.457   5.414  0.4911 -0.4395  1.1428
 5053SOL    HW215159   3.675   1.365   5.524  2.2559 -1.9836  0.6939
 5054SOL     OW15160   4.293   2.990   5.968 -0.5153  0.4951  0.2107
 5054SOL    HW115161   4.223   2.985   6.032 -0.2253  0.6945  0.5479
 5054SOL    HW215162   4.297   2.903   5.929 -3.8086  1.4819 -2.9241
 5055SOL     OW15163   5.796   2.684   4.484 -0.5583 -0.0876  0.0225
 5055SOL    HW115164   5.777   2.715   4.573 -0.2424 -0.1675  0.1185
 5055SOL    HW215165   5.807   2.589   4.494  0.2938  0.0049  0.0414
 5056SOL     OW15166   5.488   1.168   2.199  0.2612 -0.0638 -0.6453
 5056SOL    HW115167   5.583   1.155   2.199  0.3917  0.7216  0.6472
 5056SOL    HW215168   5.461   1.146   2.288 -0.8316 -0.5946 -1.0830
 5057SOL     OW15169   4.662   0.480   2.858  0.8320  0.5216 -0.2153
 5057SOL    HW115170   4.570   0.503   2.846  1.3927  2.1568 -1.6441
 5057SOL    HW215171   4.669   0.391   2.824  0.0842  0.9672 -1.5672
 5058SOL     OW15172   5.388   2.150   3.554  0.2543  0.1842 -0.6729
 5058SOL    HW115173   5.309   2.126   3.602  0.6587 -1.6632 -0.8633
 5058SOL    HW215174   5.446   2.187   3.620  0.0068 -0.3761 -0.1293
 5059SOL     OW15175   4.152   1.823   3.252 -0.0296  0.5185 -0.1857
 5059SOL    HW115176   4.086   1.756   3.233  2.7317 -2.2069 -0.8260
 5059SOL    HW215177   4.150   1.831   3.348  0.3083 -1.3361  0.0125
 5060SOL     OW15178   4.753   1.032   1.286  0.6230 -0.3619  0.3194
 5060SOL    HW115179   4.707   0.952   1.262  1.5905 -1.0089  0.5638
 5060SOL    HW215180   4.721   1.053   1.375 -0.4799  0.1876 -0.1777
 5061SOL     OW15181   1.409   5.495   4.907  0.6226 -0.3008 -0.1381
 5061SOL    HW115182   1.474   5.509   4.839  2.2841 -0.7032  1.2832
 5061SOL    HW215183   1.351   5.427   4.872  0.8866  0.1475 -1.4783
 5062SOL     OW15184   4.955   4.261   5.677  0.6374 -0.3303 -0.1498
 5062SOL    HW115185   4.925   4.323   5.610  1.0730 -0.3302 -0.3514
 5062SOL    HW215186   4.961   4.177   5.630  0.9947 -0.3192 -0.1297
 5063SOL     OW15187   5.055   1.072   1.170 -0.4161 -0.1853 -0.1404
 5063SOL    HW115188   5.135   1.043   1.215 -0.0203  0.3297 -0.5004
 5063SOL    HW215189   4.984   1.032   1.220  0.0540 -0.4218  0.3569
 5064SOL     OW15190   1.939  -0.009   2.132 -0.2008  0.4756  0.0376
 5064SOL    HW115191   1.880   0.003   2.206  0.5657  1.2677  0.5416
 5064SOL    HW215192   1.896   0.036   2.060 -0.8071 -0.0398  0.0699
 5065SOL     OW15193   5.371   5.142   5.834  0.7237 -0.3068  0.3777
 5065SOL    HW115194   5.364   5.235   5.858  1.1138 -0.1714 -0.0140
 5065SOL    HW215195   5.366   5.095   5.917  0.1000  0.0365  0.5482
 5066SOL     OW15196   3.131   0.948   1.135  0.1556 -0.3750  0.2003
 5066SOL    HW115197   3.155   0.952   1.227 -2.4288 -0.8893  0.9844
 5066SOL    HW215198   3.071   1.022   1.123 -1.4856 -1.7220 -0.3784
 5067SOL     OW15199   4.488   0.461   4.918 -0.2588 -0.2980 -0.5490
 5067SOL    HW115200   4.524   0.508   4.993  0.4633 -1.5097 -0.1014
 5067SOL    HW215201   4.565   0.434   4.867 -0.5307 -2.0122 -0.1418
 5068SOL     OW15202   0.535   4.218   3.861  0.1285  0.2795 -0.4255
 5068SOL    HW115203   0.516   4.290   3.801 -1.4679  3.1741  3.1558
 5068SOL    HW215204   0.628   4.199   3.847  0.9742  3.9550 -0.7538
 5069SOL     OW15205   2.116   0.205   5.225  0.2459 -0.3732  0.3888
 5069SOL    HW115206   2.168   0.279   5.194 -0.3766 -0.0959 -0.0131
 5069SOL    HW215207   2.098   0.225   5.317  1.4924 -0.8508  0.7587
 5070SOL     OW15208   0.650   4.639   0.432 -0.5102 -0.0521 -0.3224
 5070SOL    HW115209   0.629   4.666   0.343  1.2723  1.0511 -0.4763
 5070SOL    HW215210   0.644   4.720   0.483  0.1619 -0.3246  0.2021
 5071SOL     OW15211   1.172   4.149   4.418  0.2437  0.4241  0.1130
 5071SOL    HW115212   1.148   4.124   4.507  0.9935  1.1696  0.5412
 5071SOL    HW215213   1.089   4.172   4.376 -0.2430 -1.0533  0.2451
 5072SOL     OW15214   0.149   5.874   3.551 -0.8923 -0.0298  0.0173
 5072SOL    HW115215   0.137   5.895   3.458 -0.0549 -0.2702 -0.1549
 5072SOL    HW215216   0.139   5.779   3.556 -0.2975 -0.0954  0.0583
 5073SOL     OW15217   5.499   4.476   5.023 -0.2004 -0.0469 -0.1713
 5073SOL    HW115218   5.518   4.405   4.962 -0.8280 -0.3232 -0.0531
 5073SOL    HW215219   5.570   4.539   5.010 -0.0249 -0.3665 -0.7743
 5074SOL     OW15220   4.477   1.454   0.099  0.2341  0.3278  0.1403
 5074SOL    HW115221   4.512   1.404   0.173 -1.2784 -1.8127 -0.4972
 5074SOL    HW215222   4.383   1.460   0.116  0.0115  0.6648 -1.1106
 5075SOL     OW15223   1.714   3.459   4.606 -0.5362 -0.2524 -0.4930
 5075SOL    HW115224   1.695   3.430   4.696 -1.0622  0.1190 -0.4793
 5075SOL    HW215225   1.792   3.513   4.615 -0.0566 -0.9484 -0.3938
 5076SOL     OW15226   3.754   2.815   0.583  0.1483 -0.4639  0.1716
 5076SOL    HW115227   3.790   2.726   0.582  1.3099 -0.0363 -2.0456
 5076SOL    HW215228   3.665   2.805   0.549  0.8188 -0.6465 -1.6582
 5077SOL     OW15229   4.517   0.046   4.545  0.2644  0.1639  0.1409
 5077SOL    HW115230   4.567   0.127   4.551 -0.4557  0.6166  0.0808
 5077SOL    HW215231   4.504   0.020   4.637  0.5106  0.1062  0.1598
 5078SOL     OW15232   2.822   5.210   0.793 -0.7447 -0.0842  0.6003
 5078SOL    HW115233   2.913   5.180   0.804 -0.8270 -1.7656 -2.2324
 5078SOL    HW215234   2.830   5.304   0.775  0.3587 -0.0290  1.2834
 5079SOL     OW15235   0.048   0.655   1.069  0.0502 -0.1837  0.5304
 5079SOL    HW115236  -0.013   0.582   1.058 -0.7156  0.6698 -1.2508
 5079SOL    HW215237  -0.007   0.732   1.079  0.8535  0.2537  1.8441
 5080SOL     OW15238   5.170   4.052   5.519  0.4836  0.4483  0.1769
 5080SOL    HW115239   5.182   3.978   5.579  0.8137 -0.4772 -0.9727
 5080SOL    HW215240   5.232   4.034   5.448  0.3209  1.6656 -0.2850
 5081SOL     OW15241   5.831   0.215   5.362  0.3000 -0.5002  0.1788
 5081SOL    HW115242   5.821   0.207   5.267  2.0236  0.3493 -0.1115
 5081SOL    HW215243   5.772   0.286   5.387  0.3159 -0.3012 -0.3432
 5082SOL     OW15244   0.334   0.943   5.621 -0.0431 -0.0552  0.5453
 5082SOL    HW115245   0.366   0.853   5.611 -0.5147 -0.2758  0.9732
 5082SOL    HW215246   0.402   0.997   5.581  1.1119 -0.4819  1.8394
 5083SOL     OW15247   5.045   2.999   0.952 -0.6376 -0.5210  0.1966
 5083SOL    HW115248   5.080   2.921   0.908  0.3739  0.5007 -0.8717
 5083SOL    HW215249   5.053   2.979   1.046  0.2317 -1.4388 -0.0589
 5084SOL     OW15250   3.396   2.920   4.130  0.2759 -0.0261  0.0951
 5084SOL    HW115251   3.429   2.877   4.209 -0.1648  0.4731  0.5545
 5084SOL    HW215252   3.310   2.879   4.115 -0.8250  1.6761  1.3804
 5085SOL     OW15253   4.607   4.778   1.706 -0.0662 -0.0578  0.0223
 5085SOL    HW115254   4.571   4.704   1.755  0.8139 -1.5894 -1.5301
 5085SOL    HW215255   4.676   4.813   1.763 -1.8119  0.9012  1.6410
 5086SOL     OW15256   4.225   3.094   4.583 -0.0063  0.0860 -0.3570
 5086SOL    HW115257   4.246   3.184   4.557 -0.8655  0.2561 -0.5170
 5086SOL    HW215258   4.178   3.058   4.508 -0.6381 -0.1300  0.1344
 5087SOL     OW15259   4.292   4.455   5.927 -0.4029  0.0683  0.7119
 5087SOL    HW115260   4.339   4.515   5.985  0.5683  1.1614 -1.1157
 5087SOL    HW215261   4.201   4.460   5.956 -0.2016  1.7816  1.1643
 5088SOL     OW15262   2.203   4.799   0.278 -0.3242  0.1315 -0.1912
 5088SOL    HW115263   2.179   4.737   0.209 -1.0541 -0.0457  0.2146
 5088SOL    HW215264   2.208   4.746   0.358 -1.1381  0.6131  0.1919
 5089SOL     OW15265   5.122   3.222   0.793  0.2564  0.5979  0.6596
 5089SOL    HW115266   5.143   3.165   0.719  0.4564  1.6792 -0.1297
 5089SOL    HW215267   5.101   3.161   0.864  3.1094 -0.5340  0.6600
 5090SOL     OW15268   2.217   2.650   5.735 -0.3410  0.4291 -0.1444
 5090SOL    HW115269   2.256   2.658   5.648 -2.0341  0.3395 -0.9517
 5090SOL    HW215270   2.142   2.710   5.734 -1.4443 -0.8591  0.6054
 5091SOL     OW15271   3.906   2.799   0.180 -0.1991  0.1265  0.3204
 5091SOL    HW115272   3.959   2.842   0.247 -0.0390  0.6057 -0.1050
 5091SOL    HW215273   3.861   2.871   0.136 -1.7338 -0.3053  1.1076
 5092SOL     OW15274   3.002   2.209   3.842 -0.2438  0.3683 -0.1300
 5092SOL    HW115275   3.008   2.154   3.764 -0.2284  0.7083 -0.3734
 5092SOL    HW215276   3.007   2.148   3.916 -0.1890  0.0516 -0.3950
 5093SOL     OW15277   5.189   0.598   1.564  0.1635  0.4939 -0.6159
 5093SOL    HW115278   5.149   0.685   1.571  0.0790  0.4444 -0.5015
 5093SOL    HW215279   5.127   0.548   1.511  0.0151  0.3796 -0.3312
 5094SOL     OW15280   2.918   1.758   5.106 -0.4026  0.1138 -0.2258
 5094SOL    HW115281   2.965   1.689   5.151 -2.9275 -2.1779 -0.8351
 5094SOL    HW215282   2.927   1.736   5.013 -0.0150  1.5082 -0.5422
 5095SOL     OW15283   0.706   3.076   0.840  0.3770 -0.1865 -0.5545
 5095SOL    HW115284   0.684   3.144   0.904 -1.1019 -2.0915  1.0771
 5095SOL    HW215285   0.653   3.097   0.763 -1.3653 -0.3908  0.5484
 5096SOL     OW15286   4.841   4.934   0.290  0.1844  0.2378  0.1889
 5096SOL    HW115287   4.928   4.906   0.263 -0.7531 -3.5296  0.4364
 5096SOL    HW215288   4.845   4.937   0.386 -0.2343 -1.3204  0.2823
 5097SOL     OW15289   4.338   3.998   1.256 -0.0529  0.0683 -0.3875
 5097SOL    HW115290   4.345   4.087   1.223  0.2076  0.1093 -0.2257
 5097SOL    HW215291   4.305   4.007   1.346  2.6164  0.2113  0.6807
 5098SOL     OW15292   5.048   3.445   5.536  0.1846 -0.5339 -0.8871
 5098SOL    HW115293   5.001   3.442   5.453  0.5665 -0.3768 -1.1135
 5098SOL    HW215294   5.068   3.537   5.549 -0.2777 -0.4983 -0.3844
 5099SOL     OW15295   4.317   4.812   0.171  0.6528 -0.3110 -0.0181
 5099SOL    HW115296   4.310   4.721   0.201 -0.7464 -0.2721 -0.1638
 5099SOL    HW215297   4.404   4.817   0.131  0.3116 -1.9067 -1.0644
 5100SOL     OW15298   4.855   2.786   0.179  0.1675 -0.0058  0.2812
 5100SOL    HW115299   4.902   2.736   0.112  0.5356  0.4183  0.2219
 5100SOL    HW215300   4.905   2.866   0.189  0.3829 -0.2632  1.4062
 5101SOL     OW15301   5.736   3.831   3.341  0.3801 -0.6525  0.3676
 5101SOL    HW115302   5.787   3.899   3.385  0.8061 -0.3404 -0.5749
 5101SOL    HW215303   5.693   3.783   3.412  1.2871 -0.3645  1.1289
 5102SOL     OW15304   5.731   1.098   0.046 -0.0769  0.5432  0.1808
 5102SOL    HW115305   5.682   1.177   0.022 -2.4275 -1.3868 -1.8759
 5102SOL    HW215306   5.813   1.105  -0.004 -0.5196  1.3711 -0.4540
 5103SOL     OW15307   4.686   3.251   4.328  0.2322  0.5032 -0.4523
 5103SOL    HW115308   4.767   3.218   4.366 -0.4811 -2.4625 -1.2611
 5103SOL    HW215309   4.697   3.241   4.233 -0.7392  0.9362 -0.6297
 5104SOL     OW15310   5.167   1.039   0.198  0.2532 -0.1353 -0.0729
 5104SOL    HW115311   5.260   1.058   0.188  0.1500  0.0602 -0.6939
 5104SOL    HW215312   5.139   1.009   0.112 -0.3056  0.0072  0.0552
 5105SOL     OW15313   3.159   3.674   5.848  0.2387 -0.0080  0.2508
 5105SOL    HW115314   3.072   3.635   5.863 -0.4767  1.0857 -0.8651
 5105SOL    HW215315   3.150   3.765   5.877  0.4514  0.6116 -1.5026
 5106SOL     OW15316   1.333   3.811   1.532 -0.0454  0.3325  0.1295
 5106SOL    HW115317   1.291   3.782   1.451 -1.4410 -0.3417  1.0344
 5106SOL    HW215318   1.291   3.895   1.551 -0.4129  0.0489  0.6099
 5107SOL     OW15319   4.695   5.787   3.960 -0.2580  0.3223 -0.5838
 5107SOL    HW115320   4.779   5.771   4.003 -1.0524 -1.3869  0.4407
 5107SOL    HW215321   4.712   5.770   3.867  0.8985  1.6830 -0.6636
 5108SOL     OW15322   4.862   0.290   2.151 -0.6944 -0.3319 -0.4280
 5108SOL    HW115323   4.941   0.237   2.162 -1.6931 -1.8786 -0.3912
 5108SOL    HW215324   4.851   0.335   2.235  0.0803 -0.1806 -0.4043
 5109SOL     OW15325   3.664   3.843   5.419  0.2958 -0.5256 -0.0339
 5109SOL    HW115326   3.655   3.766   5.363 -2.6630 -0.5671  0.3241
 5109SOL    HW215327   3.648   3.917   5.360  1.3713 -0.2751 -0.0283
 5110SOL     OW15328   3.505   2.407   1.718  0.5794  0.0718  0.2241
 5110SOL    HW115329   3.428   2.352   1.699 -0.2587  0.5132  2.1104
 5110SOL    HW215330   3.574   2.344   1.741 -0.2137 -0.2604  1.8122
 5111SOL     OW15331   2.115   2.993   0.743 -0.8189 -0.8689 -0.3153
 5111SOL    HW115332   2.162   2.925   0.792 -0.5930  0.4057  1.3079
 5111SOL    HW215333   2.159   2.996   0.658  2.1005  0.2482  1.0987
 5112SOL     OW15334   4.016   3.140   5.905  0.2472  0.2919  0.3050
 5112SOL    HW115335   4.106   3.174   5.905  0.2354  0.4198  2.3625
 5112SOL    HW215336   4.022   3.057   5.858  0.9929  1.2853 -1.4962
 5113SOL     OW15337   0.318   0.184   3.075 -0.2763 -0.1835 -0.2278
 5113SOL    HW115338   0.357   0.128   3.142  0.7135 -0.3463 -0.9290
 5113SOL    HW215339   0.392   0.223   3.029 -0.9455  0.3380 -0.8926
 5114SOL     OW15340   2.725   3.339   1.557 -0.3473 -0.1122  0.0858
 5114SOL    HW115341   2.714   3.394   1.634  1.2497  1.8492 -0.9957
 5114SOL    HW215342   2.665   3.377   1.492  0.3588  0.0170 -0.4964
 5115SOL     OW15343   5.451   1.287   1.483  0.2358  0.1569  0.1144
 5115SOL    HW115344   5.494   1.206   1.512 -1.0832 -0.4224  0.5257
 5115SOL    HW215345   5.449   1.280   1.387  2.2451  0.8454 -0.0241
 5116SOL     OW15346   4.602   2.512   5.405  0.0034 -0.1469 -0.6719
 5116SOL    HW115347   4.612   2.542   5.496 -0.2873  2.7324 -1.4782
 5116SOL    HW215348   4.510   2.489   5.397 -0.3280  1.1157 -0.6186
 5117SOL     OW15349   4.490   2.311   5.781  0.5209 -0.9957 -0.0708
 5117SOL    HW115350   4.504   2.405   5.773 -0.1165 -1.0351 -2.3801
 5117SOL    HW215351   4.563   2.280   5.834 -0.2812  0.9972  2.3964
 5118SOL     OW15352   3.239   3.612   4.479  0.6573 -0.2136  0.6361
 5118SOL    HW115353   3.196   3.678   4.535  0.2370  0.3826 -0.3632
 5118SOL    HW215354   3.196   3.530   4.502 -0.4166  0.2348  0.2843
 5119SOL     OW15355   5.567   1.926   5.410  0.6307  0.3936  0.0369
 5119SOL    HW115356   5.574   1.831   5.408  0.1691  0.3417 -2.5757
 5119SOL    HW215357   5.512   1.945   5.487 -0.3521 -1.5400 -0.1290
 5120SOL     OW15358   5.086   1.741   5.480  0.6933  0.0265  0.1065
 5120SOL    HW115359   5.032   1.687   5.538  0.1196  0.7601  0.2714
 5120SOL    HW215360   5.154   1.681   5.449  0.6332 -0.5451  1.0312
 5121SOL     OW15361   5.905   5.031   1.166 -0.5132  0.5268  0.1656
 5121SOL    HW115362   5.846   5.105   1.179 -0.3793  0.4195  1.4802
 5121SOL    HW215363   5.846   4.955   1.158 -0.6244  0.6841 -0.6307
 5122SOL     OW15364   3.119   3.268   1.969 -0.1486 -0.2015 -0.2479
 5122SOL    HW115365   3.177   3.217   2.025  0.3129  1.0944  0.4947
 5122SOL    HW215366   3.035   3.268   2.015  0.2766  1.0084  0.5680
 5123SOL     OW15367   1.074   4.915   0.550  0.0197  0.0182  0.0569
 5123SOL    HW115368   1.013   4.910   0.477 -0.9207  0.2146  0.8106
 5123SOL    HW215369   1.132   4.988   0.528 -0.5244  0.3487 -0.2935
 5124SOL     OW15370   5.826   1.343   5.294  0.3905 -0.4449  0.3730
 5124SOL    HW115371   5.790   1.266   5.338 -0.7939  0.2380  0.6422
 5124SOL    HW215372   5.767   1.359   5.220  1.2860 -0.4592 -0.3705
 5125SOL     OW15373   2.905   4.056   0.252 -0.7797 -0.1401  0.0104
 5125SOL    HW115374   2.875   4.059   0.343 -2.0742 -1.4229 -0.3486
 5125SOL    HW215375   2.982   4.113   0.251 -0.9569  0.1983  1.8183
 5126SOL     OW15376   5.911   3.882   1.718 -0.3069  0.2797 -0.4582
 5126SOL    HW115377   6.001   3.854   1.738 -0.0086  0.6298 -1.2469
 5126SOL    HW215378   5.856   3.834   1.779  0.5510  1.3314  1.2039
 5127SOL     OW15379   3.478   4.553   0.206  0.4922 -0.3361 -0.1724
 5127SOL    HW115380   3.551   4.534   0.264 -0.4936 -0.5153  1.0402
 5127SOL    HW215381   3.445   4.639   0.235 -1.1148 -1.2165  0.7484
 5128SOL     OW15382   3.776   2.923   1.180 -0.2703  0.1812  0.3051
 5128SOL    HW115383   3.720   2.980   1.232  2.6792  2.0824  1.6308
 5128SOL    HW215384   3.823   2.870   1.244  1.5565  0.7238 -0.5316
 5129SOL     OW15385   5.704   5.323   0.020 -0.2532  0.0412  0.3185
 5129SOL    HW115386   5.619   5.314  -0.023 -0.7543  1.1720  1.0426
 5129SOL    HW215387   5.718   5.417   0.027  0.5555 -0.1261  1.2042
 5130SOL     OW15388   5.396   0.073   0.260 -0.5070 -0.3584  0.1307
 5130SOL    HW115389   5.472   0.079   0.202 -1.6818  0.5310 -1.3912
 5130SOL    HW215390   5.347  -0.003   0.228 -0.6404 -0.5053  0.6616
 5131SOL     OW15391   3.138   2.307   1.300 -0.0652  1.3629  0.3381
 5131SOL    HW115392   3.188   2.244   1.352 -1.1216  0.5466  0.3829
 5131SOL    HW215393   3.180   2.391   1.319 -0.1184  1.0209  2.1718
 5132SOL     OW15394   4.971   0.476   1.440 -0.0288 -0.5368  0.3321
 5132SOL    HW115395   4.947   0.391   1.405  1.3419 -1.0093  0.5067
 5132SOL    HW215396   4.932   0.539   1.380 -1.2273 -1.2672  0.3168
 5133SOL     OW15397   4.151   2.567   3.317 -0.3239 -0.0443  0.1514
 5133SOL    HW115398   4.149   2.655   3.277 -1.4111 -0.4457 -0.7339
 5133SOL    HW215399   4.191   2.581   3.403 -0.2398  1.2807 -0.0725
 5134SOL     OW15400   5.296   2.018   4.056 -0.2174  0.2909  0.6399
 5134SOL    HW115401   5.268   2.094   4.005  1.2747  0.2711 -0.2920
 5134SOL    HW215402   5.242   1.946   4.024  0.3552  0.3840 -0.6039
 5135SOL     OW15403   5.068   3.517   2.120  0.3263  0.1625 -0.2976
 5135SOL    HW115404   5.084   3.611   2.117 -0.4383  0.2747 -2.5943
 5135SOL    HW215405   5.051   3.492   2.029  0.8144 -2.2630  0.2022
 5136SOL     OW15406   5.806   4.428   1.046 -0.1077 -0.6795 -0.2749
 5136SOL    HW115407   5.829   4.336   1.054 -0.1239 -0.6193  0.5210
 5136SOL    HW215408   5.760   4.449   1.127  3.0802  0.9278  1.3247
 5137SOL     OW15409   2.306   2.066   5.118 -0.5970 -0.2166  0.4672
 5137SOL    HW115410   2.333   1.981   5.083 -0.3750 -0.0392  0.1943
 5137SOL    HW215411   2.263   2.046   5.201 -1.1838 -0.6547  0.0631
 5138SOL     OW15412   0.941   3.834   1.758  0.0362 -0.4508  0.0464
 5138SOL    HW115413   0.957   3.868   1.846  0.9099 -0.0304 -0.2672
 5138SOL    HW215414   0.848   3.851   1.743 -0.0855 -0.3792  0.8193
 5139SOL     OW15415   2.610   3.130   1.031  0.1533  0.7149 -0.4602
 5139SOL    HW115416   2.647   3.131   0.943 -1.0138  1.5441 -0.9730
 5139SOL    HW215417   2.642   3.210   1.072  0.1100  0.7004 -0.3972
 5140SOL     OW15418   3.697   0.216   3.016  0.1164 -0.1323  0.3769
 5140SOL    HW115419   3.772   0.222   3.076  1.3310  1.8621 -1.2226
 5140SOL    HW215420   3.662   0.305   3.013 -1.8126 -0.8519  0.3824
 5141SOL     OW15421   0.335   3.491   3.649  0.6978  0.2890 -0.4502
 5141SOL    HW115422   0.241   3.477   3.663  0.9587 -0.2428  0.9746
 5141SOL    HW215423   0.373   3.403   3.649  1.2532  0.5225 -0.5935
 5142SOL     OW15424   4.580   0.969   1.799  1.0854  0.4007  0.2196
 5142SOL    HW115425   4.652   1.030   1.812  1.9773 -0.6109  0.1231
 5142SOL    HW215426   4.583   0.910   1.875  1.0252 -0.2913 -0.3033
 5143SOL     OW15427   3.420   2.562   0.992  0.3248  0.4527 -0.0020
 5143SOL    HW115428   3.485   2.497   0.966 -0.1564 -0.0287 -0.0336
 5143SOL    HW215429   3.423   2.629   0.924  0.2768  0.0632 -0.3916
 5144SOL     OW15430   0.867   1.772   3.222  0.4786  0.2308 -0.0508
 5144SOL    HW115431   0.881   1.681   3.245 -0.2881  0.3223  0.8456
 5144SOL    HW215432   0.954   1.812   3.227  0.8805 -0.5088 -0.8090
 5145SOL     OW15433   0.381   2.734   0.489  0.0795 -0.2711 -0.3075
 5145SOL    HW115434   0.382   2.827   0.514  0.1932 -0.2532 -0.3741
 5145SOL    HW215435   0.474   2.712   0.479  0.0248  0.1102 -2.1174
 5146SOL     OW15436   4.128   4.671   3.288 -0.3669 -0.0978  0.0320
 5146SOL    HW115437   4.047   4.695   3.242 -0.1663 -0.1298 -0.3418
 5146SOL    HW215438   4.172   4.610   3.229  0.8469  1.3691 -0.6583
 5147SOL     OW15439   4.165   1.057   1.516 -0.5050  0.2859 -0.4048
 5147SOL    HW115440   4.159   1.136   1.569 -1.7824 -0.5273  0.7299
 5147SOL    HW215441   4.151   0.985   1.577 -0.8501 -0.7499 -1.6413
 5148SOL     OW15442   3.530   3.017   2.986  0.2341 -0.0702  0.3933
 5148SOL    HW115443   3.596   3.048   3.049 -2.0063  0.9865  2.3614
 5148SOL    HW215444   3.510   3.094   2.933  0.3930 -0.3401 -0.0677
 5149SOL     OW15445   5.777   3.170   0.118 -0.1706  0.6251 -0.1931
 5149SOL    HW115446   5.828   3.249   0.136  0.2374  0.1695  0.7644
 5149SOL    HW215447   5.749   3.140   0.205 -0.5784 -0.1060 -0.5674
 5150SOL     OW15448   0.244   3.122   0.329 -0.0241 -0.1786  0.7203
 5150SOL    HW115449   0.236   3.177   0.252  3.3366 -0.2051  0.2245
 5150SOL    HW215450   0.192   3.166   0.396  1.0377  2.6227 -0.1921
 5151SOL     OW15451   2.781   2.848   3.119 -0.8576  0.1744 -0.1513
 5151SOL    HW115452   2.776   2.754   3.102 -0.6933  0.1191  0.1057
 5151SOL    HW215453   2.847   2.857   3.187 -0.2764  0.5564 -0.7539
 5152SOL     OW15454   4.600   0.011   0.373  0.0088  0.1571 -0.0655
 5152SOL    HW115455   4.682   0.007   0.421  0.0356  0.8338 -0.0401
 5152SOL    HW215456   4.533  -0.004   0.440  0.0451  1.1052  0.2043
 5153SOL     OW15457   1.972   2.623   1.183 -0.2114 -0.5438  0.2924
 5153SOL    HW115458   2.024   2.664   1.114 -0.3559  0.5521  0.8196
 5153SOL    HW215459   2.008   2.658   1.264 -3.0476  1.9426  0.6554
 5154SOL     OW15460   0.078   2.533   2.746  0.0394  0.3639 -0.6240
 5154SOL    HW115461   0.141   2.586   2.696  0.2192  0.1180 -0.6579
 5154SOL    HW215462   0.017   2.597   2.783  0.3069  0.6008 -0.5949
 5155SOL     OW15463   6.004   4.657   1.031  0.2541  0.0444  0.8196
 5155SOL    HW115464   6.007   4.703   0.947 -0.8571  0.8922  1.2272
 5155SOL    HW215465   5.954   4.578   1.013  0.3960  0.0070  0.5871
 5156SOL     OW15466   2.980   1.020   3.716  0.1030 -0.2957 -0.2165
 5156SOL    HW115467   2.941   1.024   3.629  1.7138  1.4452 -0.9357
 5156SOL    HW215468   2.990   1.112   3.742 -0.7049 -0.7642  2.0150
 5157SOL     OW15469   1.516   3.088   1.545 -0.0197 -0.3264  0.1669
 5157SOL    HW115470   1.538   3.153   1.612 -0.0811 -0.1766  0.0403
 5157SOL    HW215471   1.585   3.022   1.553  0.2664 -0.0467  0.0302
 5158SOL     OW15472   0.591   5.411   1.993  0.2852  0.0083 -0.1919
 5158SOL    HW115473   0.527   5.456   2.049 -0.8694 -0.7818 -0.8412
 5158SOL    HW215474   0.588   5.320   2.022  0.6718 -0.1519 -0.6491
 5159SOL     OW15475   0.339   1.661   2.712 -0.1909 -0.2491  0.2744
 5159SOL    HW115476   0.290   1.603   2.770 -0.0454 -1.1607 -0.4757
 5159SOL    HW215477   0.387   1.601   2.654  2.3703  0.5795  1.4153
 5160SOL     OW15478   5.768   3.751   1.903  0.9014  0.5583 -0.1287
 5160SOL    HW115479   5.794   3.775   1.991  0.1817 -1.0105  0.5510
 5160SOL    HW215480   5.672   3.748   1.906  0.9251 -1.7363 -0.2958
 5161SOL     OW15481   4.222   1.390   2.866 -0.3913 -0.0022 -0.2859
 5161SOL    HW115482   4.148   1.331   2.879 -0.1036 -0.4732 -0.7871
 5161SOL    HW215483   4.200   1.440   2.787 -0.0259 -0.3794 -0.6310
 5162SOL     OW15484   2.310   2.879   1.543  0.0013  0.1096  0.2490
 5162SOL    HW115485   2.346   2.907   1.459 -0.8603 -0.4013 -0.3135
 5162SOL    HW215486   2.385   2.846   1.592  0.5698  0.7512 -0.1834
 5163SOL     OW15487   3.203   2.893   2.092 -0.0643 -0.1479  0.3607
 5163SOL    HW115488   3.165   2.957   2.031 -0.7989  0.2775  1.2359
 5163SOL    HW215489   3.238   2.824   2.036 -0.0251  0.6143 -0.5680
 5164SOL     OW15490   0.563   2.441   0.042  0.1882 -0.1653  0.2328
 5164SOL    HW115491   0.485   2.387   0.031  1.4330 -2.4150  1.6788
 5164SOL    HW215492   0.540   2.502   0.112 -0.2954 -0.7571  0.6004
 5165SOL     OW15493   4.100   3.975   0.966 -0.1402  0.0329  0.1858
 5165SOL    HW115494   4.105   3.888   1.005  0.8323  0.2799  0.6454
 5165SOL    HW215495   4.014   3.978   0.924 -0.3832 -0.9645  0.5924
 5166SOL     OW15496   0.485   2.696   0.125 -0.0938 -0.2206 -0.0747
 5166SOL    HW115497   0.575   2.722   0.107  0.5394 -1.3812  1.2569
 5166SOL    HW215498   0.440   2.778   0.145  1.3224  0.1412  1.9019
 5167SOL     OW15499   3.386   2.324   5.362  0.3939 -0.7542  0.1296
 5167SOL    HW115500   3.339   2.284   5.435  0.4282  0.5721  0.9014
 5167SOL    HW215501   3.383   2.257   5.293 -1.0393 -1.4067  0.7711
 5168SOL     OW15502   5.547   4.597   0.641  0.1705  0.2247  1.1437
 5168SOL    HW115503   5.574   4.576   0.552  0.3982  0.1027  1.2397
 5168SOL    HW215504   5.607   4.546   0.696 -1.6663 -1.8715  1.3496
 5169SOL     OW15505   1.627   4.164   1.272  0.4897  0.0472 -0.6157
 5169SOL    HW115506   1.670   4.092   1.226  0.0263  0.5072 -1.8209
 5169SOL    HW215507   1.626   4.236   1.209 -1.9786  0.0690 -0.6625
 5170SOL     OW15508   3.817   1.295   1.489 -0.0706  0.5885 -0.1168
 5170SOL    HW115509   3.865   1.306   1.571 -1.0049  1.8573  0.2804
 5170SOL    HW215510   3.848   1.366   1.433  1.8388 -1.2505 -1.5597
 5171SOL     OW15511   3.114   3.315   2.679  0.2841 -0.3027 -1.4135
 5171SOL    HW115512   3.023   3.331   2.700  0.6300  1.9116 -1.3602
 5171SOL    HW215513   3.120   3.330   2.584  0.1562 -2.9401 -1.9133
 5172SOL     OW15514   3.261   5.379   0.109 -1.1454 -0.0266 -0.3342
 5172SOL    HW115515   3.325   5.408   0.044  0.1279  2.4255  1.7895
 5172SOL    HW215516   3.208   5.313   0.064 -1.5868  2.7670 -4.4291
 5173SOL     OW15517   3.547   4.261   3.396 -0.4917  0.1693 -0.3138
 5173SOL    HW115518   3.494   4.340   3.380 -0.4931  1.0345  3.1623
 5173SOL    HW215519   3.623   4.293   3.445 -0.2311 -1.8910  0.7487
 5174SOL     OW15520   1.574   5.645   3.845  0.1432  0.1958  0.2009
 5174SOL    HW115521   1.494   5.647   3.793  1.1522 -0.5686 -1.4478
 5174SOL    HW215522   1.644   5.628   3.782  1.4400 -0.6953  1.7951
 5175SOL     OW15523   1.184   4.253   2.755 -0.3401  0.0956 -0.0106
 5175SOL    HW115524   1.257   4.239   2.694 -1.4718 -1.3392 -1.1356
 5175SOL    HW215525   1.117   4.296   2.702 -1.1108 -0.5951  0.3716
 5176SOL     OW15526   3.897   5.361   0.419  0.1669  1.0027  0.2401
 5176SOL    HW115527   3.837   5.414   0.366 -0.0689  0.0720 -0.4383
 5176SOL    HW215528   3.841   5.294   0.458  1.1087 -1.7224 -2.7297
 5177SOL     OW15529   4.821   2.368   5.540  1.1276  0.1943  0.2210
 5177SOL    HW115530   4.803   2.275   5.544  1.6233  0.0565 -0.4866
 5177SOL    HW215531   4.763   2.401   5.472  1.1436  0.3508  0.2822
 5178SOL     OW15532   5.393   4.527   1.475 -0.2197 -0.1170 -0.3168
 5178SOL    HW115533   5.411   4.434   1.466  0.1713 -0.2095  1.2320
 5178SOL    HW215534   5.297   4.532   1.479 -0.6452  0.0587 -5.0274
 5179SOL     OW15535   2.038   4.084   5.976 -0.0635 -0.0216 -0.1360
 5179SOL    HW115536   1.990   4.023   5.920  0.1626  0.1708 -0.5396
 5179SOL    HW215537   1.970   4.140   6.014 -0.2642 -0.4711  0.1777
 5180SOL     OW15538   3.769   3.286   5.077  0.0383  0.0680 -0.7020
 5180SOL    HW115539   3.803   3.261   5.163 -0.7343  1.2028 -0.0211
 5180SOL    HW215540   3.716   3.212   5.049  0.0135 -0.1766 -0.0261
 5181SOL     OW15541   2.111   4.028   0.231  0.5818  0.0224  0.4413
 5181SOL    HW115542   2.091   4.008   0.140  2.2902  2.2111 -0.5356
 5181SOL    HW215543   2.098   4.123   0.238  2.4380  0.2305  1.8794
 5182SOL     OW15544   0.630   2.131   5.326 -0.1437  0.0058 -0.7489
 5182SOL    HW115545   0.633   2.219   5.364  0.4172  0.3196 -1.5006
 5182SOL    HW215546   0.620   2.146   5.232 -1.3926 -0.7619 -0.7624
 5183SOL     OW15547   1.085   3.889   1.216 -0.5856 -0.1470  0.3451
 5183SOL    HW115548   1.174   3.859   1.231 -0.8302 -0.9975  0.1565
 5183SOL    HW215549   1.089   3.984   1.230  0.0419 -0.3485  1.7175
 5184SOL     OW15550   4.397   0.909   0.832  0.3804  0.3855  0.1168
 5184SOL    HW115551   4.328   0.897   0.897 -0.8100  1.8909 -0.7902
 5184SOL    HW215552   4.453   0.978   0.868  0.4903  0.2730  0.1588
 5185SOL     OW15553   5.267   2.390   0.280  0.0747 -0.2345  0.1019
 5185SOL    HW115554   5.216   2.437   0.214 -0.1975  1.2172  1.2843
 5185SOL    HW215555   5.356   2.424   0.271  0.4429 -1.3418 -0.6679
 5186SOL     OW15556   0.657   4.101   5.084 -0.7817 -0.0256 -0.1652
 5186SOL    HW115557   0.594   4.091   5.156  0.5468  1.1488  1.2438
 5186SOL    HW215558   0.742   4.101   5.128  0.5352 -4.1161 -2.1957
 5187SOL     OW15559   3.122   2.462   3.896 -0.9083 -0.0300 -0.0186
 5187SOL    HW115560   3.095   2.519   3.824  2.5803 -0.8723 -2.2341
 5187SOL    HW215561   3.078   2.379   3.880 -1.0075  0.1284 -0.5766
 5188SOL     OW15562   1.798   1.680   4.308 -0.5343  0.1729 -0.2499
 5188SOL    HW115563   1.770   1.690   4.217  0.0513 -0.2487 -0.4838
 5188SOL    HW215564   1.718   1.660   4.356 -0.7789 -0.0725 -0.7552
 5189SOL     OW15565   3.257   3.295   3.462 -0.1395 -0.0307  0.1612
 5189SOL    HW115566   3.351   3.305   3.444 -0.1834  1.7419  0.7327
 5189SOL    HW215567   3.252   3.219   3.520  1.4855  2.2303  3.6323
 5190SOL     OW15568   5.069   0.001   2.773 -0.0910 -0.5878  0.0172
 5190SOL    HW115569   5.022   0.083   2.764 -0.7678 -1.0186 -0.4939
 5190SOL    HW215570   5.003  -0.066   2.753  1.1887 -1.1653 -2.7947
 5191SOL     OW15571   4.681   3.647   2.649  0.1690 -0.0216  0.1489
 5191SOL    HW115572   4.592   3.667   2.621  0.6161 -1.0638 -2.2812
 5191SOL    HW215573   4.673   3.565   2.698 -0.2081 -0.0246  0.0842
 5192SOL     OW15574   5.059   3.923   0.145  0.2086 -0.1385 -0.4434
 5192SOL    HW115575   5.011   3.871   0.209 -0.0554 -1.0310 -1.3477
 5192SOL    HW215576   5.087   3.860   0.079  2.0218  0.4698 -0.3119
 5193SOL     OW15577   3.677   4.246   0.942  0.0703  0.4858 -0.3845
 5193SOL    HW115578   3.623   4.263   0.864  1.1177  1.0369 -1.0197
 5193SOL    HW215579   3.640   4.167   0.980 -0.3923  0.1243 -1.5346
 5194SOL     OW15580   4.309   3.475   0.676 -0.4872  0.6894 -0.5170
 5194SOL    HW115581   4.392   3.433   0.699 -0.7083  0.1728 -0.6460
 5194SOL    HW215582   4.294   3.450   0.585 -1.4141 -0.2875 -0.1179
 5195SOL     OW15583   1.856   4.667   2.142 -0.1030  0.4216  0.7071
 5195SOL    HW115584   1.834   4.684   2.051  1.3247  3.3092  0.8036
 5195SOL    HW215585   1.862   4.572   2.148 -0.1406  0.1680 -2.2035
 5196SOL     OW15586   1.814   2.880   1.046  0.2272 -0.2266  0.1652
 5196SOL    HW115587   1.900   2.923   1.050  0.7097 -1.2355  1.1864
 5196SOL    HW215588   1.762   2.926   1.111  0.2979 -0.2521  0.2403
 5197SOL     OW15589   4.181   1.525   5.710 -0.2463 -0.8390 -0.1971
 5197SOL    HW115590   4.268   1.500   5.741 -0.6401 -2.1816 -0.0853
 5197SOL    HW215591   4.194   1.606   5.662  1.1124 -1.1971 -0.4611
 5198SOL     OW15592   0.375   2.229   5.734 -0.1959  0.2144  0.0960
 5198SOL    HW115593   0.406   2.311   5.696 -1.1449  0.6978  0.3357
 5198SOL    HW215594   0.445   2.166   5.716  0.8550  1.2243  0.4892
 5199SOL     OW15595   3.780   5.195   0.722 -0.5805 -0.5718 -0.3438
 5199SOL    HW115596   3.772   5.157   0.635  0.2315 -3.2524  0.6188
 5199SOL    HW215597   3.708   5.157   0.772  0.0116 -0.5410  0.5745
 5200SOL     OW15598   5.134   3.855   2.651  0.7188  0.1794  0.4588
 5200SOL    HW115599   5.114   3.920   2.584  0.4882  0.2693  0.6131
 5200SOL    HW215600   5.168   3.906   2.724 -0.3693  0.2397  0.9484
 5201SOL     OW15601   1.772   4.024   1.470 -0.3443 -0.4739  0.4606
 5201SOL    HW115602   1.744   4.004   1.381 -0.5642  1.1987  0.1085
 5201SOL    HW215603   1.692   4.018   1.522 -0.1308 -1.9116  0.6573
 5202SOL     OW15604   3.027   4.209   0.971  0.4094 -0.3868 -0.1380
 5202SOL    HW115605   3.069   4.170   1.048  2.0315  1.9987  0.2893
 5202SOL    HW215606   3.098   4.255   0.926 -0.9227  0.0065 -1.9335
 5203SOL     OW15607   1.701   3.257   0.130  0.5851 -0.3864 -0.4855
 5203SOL    HW115608   1.696   3.164   0.106 -0.0717 -0.0409 -1.7924
 5203SOL    HW215609   1.767   3.260   0.200  0.3283 -1.8796 -0.1399
 5204SOL     OW15610   0.213   4.060   5.899 -0.2340 -0.8138  0.9068
 5204SOL    HW115611   0.153   4.135   5.895  0.5047 -0.2786 -0.9833
 5204SOL    HW215612   0.240   4.056   5.991 -0.2543  1.2773  1.0396
 5205SOL     OW15613   1.490   1.055   5.048 -0.7057  0.0447 -0.6355
 5205SOL    HW115614   1.481   1.134   5.102 -0.7217 -0.6764  0.4498
 5205SOL    HW215615   1.459   0.984   5.104  4.3232 -1.6044  0.5836
 5206SOL     OW15616   1.330   0.365   1.155 -0.2102  0.2683  0.1212
 5206SOL    HW115617   1.398   0.299   1.142 -0.4129  0.3617 -1.8271
 5206SOL    HW215618   1.318   0.370   1.249  0.3500 -1.9258  0.3627
 5207SOL     OW15619   0.540   3.992   0.680 -0.0800  0.3631  0.2738
 5207SOL    HW115620   0.633   3.970   0.672 -0.5231 -1.6970  0.3039
 5207SOL    HW215621   0.522   3.989   0.773 -0.0901  1.2276  0.3062
 5208SOL     OW15622   1.733   2.303   3.576  0.3351 -0.4999 -0.2615
 5208SOL    HW115623   1.639   2.314   3.556  0.2626  0.1794  0.3776
 5208SOL    HW215624   1.740   2.326   3.669  1.0871 -0.8720 -0.2223
 5209SOL     OW15625   0.018   4.247   5.349 -0.6710  0.0184 -0.8403
 5209SOL    HW115626   0.025   4.153   5.332  1.2641  0.1596 -1.0711
 5209SOL    HW215627  -0.009   4.285   5.265 -1.2443 -0.2948 -0.8015
 5210SOL     OW15628   5.036   3.325   4.213 -0.3045 -0.0922  0.4692
 5210SOL    HW115629   5.063   3.234   4.201  1.8169  0.1663  2.7149
 5210SOL    HW215630   5.091   3.375   4.152 -1.0714 -0.2166 -0.3501
 5211SOL     OW15631   4.239   1.383   2.579 -0.1427  0.2323  0.3067
 5211SOL    HW115632   4.319   1.424   2.611  0.5367 -1.1740  0.4740
 5211SOL    HW215633   4.257   1.289   2.581 -2.3609 -0.2512  1.9729
 5212SOL     OW15634   5.718   2.737   3.009 -0.2548  0.1125 -0.1854
 5212SOL    HW115635   5.698   2.805   2.945 -0.2593 -0.6862 -1.0641
 5212SOL    HW215636   5.765   2.670   2.958  2.4980  0.7981  1.2577
 5213SOL     OW15637   3.264   3.087   2.550  0.4256  0.0234  0.5370
 5213SOL    HW115638   3.193   3.028   2.576  0.3316  0.2294  0.7514
 5213SOL    HW215639   3.304   3.044   2.474 -1.5883  1.1434 -1.2697
 5214SOL     OW15640   3.307   3.106   1.520 -0.2597 -0.5992 -0.2390
 5214SOL    HW115641   3.278   3.090   1.430 -0.3364 -1.0982 -0.1305
 5214SOL    HW215642   3.235   3.155   1.559  0.5119  1.1811 -0.9346
 5215SOL     OW15643   4.449   3.861   3.574 -0.0335 -0.4467 -0.0425
 5215SOL    HW115644   4.397   3.861   3.494 -0.8284 -1.9490  0.4282
 5215SOL    HW215645   4.511   3.789   3.562  0.5524 -0.0039  0.2687
 5216SOL     OW15646   3.908   0.658   2.648  0.2145  0.2973 -0.3210
 5216SOL    HW115647   3.840   0.638   2.584 -0.0615 -0.6683  0.2596
 5216SOL    HW215648   3.978   0.698   2.597 -0.3562  0.3530 -1.0836
 5217SOL     OW15649   4.167   2.928   1.829  0.0428  0.0899  0.2107
 5217SOL    HW115650   4.113   2.957   1.756 -0.5725 -2.7971 -0.6120
 5217SOL    HW215651   4.108   2.930   1.905 -1.0901 -2.1646 -0.5120
 5218SOL     OW15652   2.356   5.201   0.129 -0.1967  0.7632 -0.7763
 5218SOL    HW115653   2.410   5.214   0.207 -1.3065  0.5057  0.0694
 5218SOL    HW215654   2.319   5.288   0.110 -0.0551  0.7924 -0.9197
 5219SOL     OW15655   3.957   2.258   1.654 -0.3796 -0.1307 -0.0524
 5219SOL    HW115656   3.946   2.165   1.632  1.5437 -0.3630 -0.2023
 5219SOL    HW215657   3.885   2.302   1.610 -0.1015 -1.3039 -1.7618
 5220SOL     OW15658   4.612   2.343   0.879 -0.6242 -0.1448 -0.2518
 5220SOL    HW115659   4.610   2.282   0.953  1.0822  0.4620  0.3428
 5220SOL    HW215660   4.584   2.290   0.804  2.2428 -2.2168 -0.0456
 5221SOL     OW15661   4.309   4.099   0.747 -0.1736 -0.0402  0.1991
 5221SOL    HW115662   4.243   4.157   0.707 -0.6630  0.1405  1.2337
 5221SOL    HW215663   4.258   4.026   0.781  0.2833 -0.3753  0.1658
 5222SOL     OW15664   1.501   0.664   0.623  0.6074  0.7577 -0.5841
 5222SOL    HW115665   1.466   0.580   0.653  1.1546  0.6993 -0.0828
 5222SOL    HW215666   1.428   0.706   0.577  0.2725  0.0947 -0.6658
 5223SOL     OW15667   2.458   1.721   0.872 -0.2370 -0.3312  0.5967
 5223SOL    HW115668   2.488   1.811   0.859  1.1477 -1.1008 -2.2495
 5223SOL    HW215669   2.369   1.720   0.835 -1.2762  0.3504  2.8793
 5224SOL     OW15670   4.251   1.390   0.980 -0.1939 -0.3744 -0.0421
 5224SOL    HW115671   4.264   1.360   0.890  0.4302 -0.2731  0.0046
 5224SOL    HW215672   4.222   1.312   1.028 -2.0170 -0.0789 -0.6320
 5225SOL     OW15673   3.577   3.264   0.770 -0.3253 -0.4833 -0.3452
 5225SOL    HW115674   3.643   3.276   0.702 -0.1956 -0.7253 -0.2633
 5225SOL    HW215675   3.585   3.172   0.795 -0.1852 -0.3281  0.1909
 5226SOL     OW15676   0.439   0.079   3.299 -0.1874  0.6755  0.3309
 5226SOL    HW115677   0.506   0.033   3.248 -1.8205 -2.0948  0.5283
 5226SOL    HW215678   0.454   0.051   3.389 -0.4715  1.5474  0.6621
 5227SOL     OW15679   2.750   4.731   5.846  0.0493  0.0261  0.0038
 5227SOL    HW115680   2.726   4.809   5.896 -0.4984 -0.6023  0.7472
 5227SOL    HW215681   2.840   4.747   5.818 -0.2592  1.1948 -0.4063
 5228SOL     OW15682   4.009   3.207   1.920 -0.2871 -0.1573  0.1562
 5228SOL    HW115683   3.974   3.119   1.927 -0.9823  0.1928  1.6875
 5228SOL    HW215684   3.932   3.263   1.910 -0.3263  0.6207  3.5645
 5229SOL     OW15685   1.786   4.175   2.512 -0.2587 -0.3746 -0.7182
 5229SOL    HW115686   1.693   4.167   2.534 -0.1366  2.4111  1.3790
 5229SOL    HW215687   1.829   4.107   2.564 -0.9921 -0.7198 -0.5520
 5230SOL     OW15688   2.445   4.872   3.204  0.1755  0.0122 -0.4159
 5230SOL    HW115689   2.500   4.808   3.159  1.2186 -0.5471  1.5699
 5230SOL    HW215690   2.423   4.832   3.288 -0.5471  1.5695  0.1883
 5231SOL     OW15691   0.788   0.699   3.265 -0.0679 -0.5877 -0.1677
 5231SOL    HW115692   0.772   0.757   3.339  2.4616 -0.0286  0.0318
 5231SOL    HW215693   0.707   0.648   3.256 -0.2628 -1.1942  3.4362
 5232SOL     OW15694   3.837   0.474   1.605 -0.1305 -0.1151  0.0502
 5232SOL    HW115695   3.775   0.494   1.675  0.6064  2.6265  0.0390
 5232SOL    HW215696   3.796   0.402   1.557 -0.9744 -1.6282  2.8234
 5233SOL     OW15697   4.929   3.476   1.864  0.8238  0.0118 -0.4575
 5233SOL    HW115698   4.950   3.386   1.888  1.6373  0.1767 -0.5202
 5233SOL    HW215699   4.883   3.511   1.940  1.7322 -0.0416  0.1359
 5234SOL     OW15700   3.631   3.357   1.359  0.1467  0.0664  0.8314
 5234SOL    HW115701   3.688   3.415   1.409 -1.1242  1.0794  1.1348
 5234SOL    HW215702   3.609   3.406   1.280  1.1268 -1.0341 -0.1704
 5235SOL     OW15703   2.483   3.020   0.691 -0.5216 -0.4175 -0.2308
 5235SOL    HW115704   2.470   2.958   0.619  0.1569 -2.1653  1.0629
 5235SOL    HW215705   2.423   2.989   0.760 -0.3817  0.5576  0.3457
 5236SOL     OW15706   0.343   5.390   2.566 -0.3920 -0.1847 -0.1125
 5236SOL    HW115707   0.378   5.444   2.495  0.7549 -1.8310 -0.8533
 5236SOL    HW215708   0.414   5.384   2.629 -1.1557  0.6494  0.8699
 5237SOL     OW15709   2.105   5.509   1.979  0.2769  0.3329 -0.1654
 5237SOL    HW115710   2.021   5.551   1.999 -0.1663  0.3458 -1.9319
 5237SOL    HW215711   2.152   5.510   2.062 -0.8217  1.7923  0.4824
 5238SOL     OW15712   0.126   2.260   2.702 -0.3373 -0.1663  0.1465
 5238SOL    HW115713   0.212   2.245   2.741  0.3566  0.6497 -0.9940
 5238SOL    HW215714   0.103   2.350   2.727 -0.2833  0.0526 -0.5623
 5239SOL     OW15715   3.773   1.048   1.771  0.2015  0.3263  0.3190
 5239SOL    HW115716   3.814   1.087   1.848  0.3488 -1.0732  0.9765
 5239SOL    HW215717   3.845   1.008   1.722 -0.1045 -0.2523  0.3357
 5240SOL     OW15718   4.512   1.322   2.028  0.1297  0.2208 -0.1370
 5240SOL    HW115719   4.604   1.330   2.055  0.3094 -2.2146  0.2210
 5240SOL    HW215720   4.482   1.413   2.018  2.6419  1.1020 -0.5854
 5241SOL     OW15721   5.961   3.330   3.759  0.2680  0.5841  0.3007
 5241SOL    HW115722   5.978   3.297   3.847  2.2452 -1.0370 -0.6084
 5241SOL    HW215723   6.037   3.384   3.738  0.8584 -0.6876 -1.0890
 5242SOL     OW15724   5.152   0.349   3.000 -0.9061  0.3857 -0.6514
 5242SOL    HW115725   5.176   0.405   3.074  1.8197 -0.9119 -0.4331
 5242SOL    HW215726   5.058   0.331   3.013 -0.8866  1.5218  1.5576
 5243SOL     OW15727   3.455   3.454   1.971  0.0748  0.0664 -0.3199
 5243SOL    HW115728   3.433   3.407   2.052 -1.2658  2.0850  0.5613
 5243SOL    HW215729   3.396   3.416   1.905  0.4009 -0.8316 -0.1085
 5244SOL     OW15730   4.118   2.077   3.487 -0.1023  0.2308  0.4020
 5244SOL    HW115731   4.022   2.071   3.492 -0.4177 -0.1705 -3.1974
 5244SOL    HW215732   4.147   1.987   3.474  0.5976  0.5133 -0.0481
 5245SOL     OW15733   1.245   5.870   1.886  0.2691 -0.0531  0.0173
 5245SOL    HW115734   1.155   5.852   1.858  0.5099 -0.4770 -0.5062
 5245SOL    HW215735   1.283   5.783   1.900  0.5758  0.1268  0.3146
 5246SOL     OW15736   5.088   2.062   0.859 -0.5356 -0.3829 -0.1922
 5246SOL    HW115737   5.030   2.025   0.793  0.8052 -0.7759 -1.1808
 5246SOL    HW215738   5.062   2.019   0.941  0.5591 -3.1691 -1.1832
 5247SOL     OW15739   5.568   3.045   2.760 -0.1334 -0.5206 -0.5045
 5247SOL    HW115740   5.552   3.125   2.709  0.9832  0.2746  0.3382
 5247SOL    HW215741   5.532   2.975   2.706  1.3796  0.2242 -2.6490
 5248SOL     OW15742   0.014   3.674   1.437 -0.0079  0.0535 -0.3685
 5248SOL    HW115743   0.076   3.741   1.407 -1.6443  2.1570  0.6674
 5248SOL    HW215744   0.065   3.618   1.495  1.2426  0.8624 -0.6430
 5249SOL     OW15745   2.011   3.510   1.448  0.0540 -0.2391 -0.1170
 5249SOL    HW115746   1.951   3.577   1.480 -0.0944 -0.0171 -0.8311
 5249SOL    HW215747   2.026   3.533   1.356 -0.3567 -1.4207 -0.5088
 5250SOL     OW15748   0.120   3.190   2.598 -0.0667  0.0277 -0.2365
 5250SOL    HW115749   0.210   3.220   2.611 -0.4615  0.6460  1.3694
 5250SOL    HW215750   0.129   3.102   2.562  1.1817  0.0532 -0.0281
 5251SOL     OW15751   2.964   2.326   3.317 -0.6672 -0.0796  0.0308
 5251SOL    HW115752   2.969   2.346   3.410  1.2265  0.5702 -0.1706
 5251SOL    HW215753   3.018   2.248   3.306  0.9161  1.0664 -0.7895
 5252SOL     OW15754   5.895   1.046   0.382 -0.1552  0.5397  0.5846
 5252SOL    HW115755   5.962   1.111   0.404  0.6492  0.7380 -2.1607
 5252SOL    HW215756   5.816   1.098   0.367 -0.2722  0.5598  1.2196
 5253SOL     OW15757   4.144   4.891   4.730 -0.2933  0.1863  0.3940
 5253SOL    HW115758   4.137   4.798   4.707 -0.4988  0.4145 -0.5172
 5253SOL    HW215759   4.227   4.898   4.777 -0.4674 -0.5262  0.8152
 5254SOL     OW15760   4.619   2.939   5.057  0.5193  0.0403 -0.0197
 5254SOL    HW115761   4.531   2.933   5.022 -0.1908 -1.0627  1.8430
 5254SOL    HW215762   4.660   2.856   5.035  0.2128 -0.4842  1.2993
 5255SOL     OW15763   4.572   0.870   2.066  0.1815  0.2540  0.3946
 5255SOL    HW115764   4.638   0.910   2.123  1.1285  0.5880 -0.9004
 5255SOL    HW215765   4.573   0.777   2.089  2.7527 -0.1798 -1.1090
 5256SOL     OW15766   0.810   5.165   5.279  0.0118  0.9131  0.1738
 5256SOL    HW115767   0.753   5.101   5.319 -0.8596  1.4210 -0.2205
 5256SOL    HW215768   0.881   5.178   5.342 -0.1730  0.0905  0.5549
 5257SOL     OW15769   5.868   2.996   5.021  0.9571 -0.5458  0.5372
 5257SOL    HW115770   5.888   2.940   5.096  1.7517  0.2496  0.9406
 5257SOL    HW215771   5.773   3.001   5.018  0.9138  0.4530  2.3118
 5258SOL     OW15772   5.155   3.677   4.242 -0.0370  0.0415 -0.1934
 5258SOL    HW115773   5.213   3.684   4.318  0.3124 -1.5112 -0.2909
 5258SOL    HW215774   5.203   3.624   4.179 -1.1731 -0.4927 -0.6542
 5259SOL     OW15775   4.581   3.056   5.931  0.1745 -0.1725 -0.5824
 5259SOL    HW115776   4.504   3.024   5.978  0.0773  0.5785 -0.2169
 5259SOL    HW215777   4.560   3.044   5.839  0.3355 -1.6037 -0.4633
 5260SOL     OW15778   1.005   4.814   3.567  0.3325 -0.2041 -0.0431
 5260SOL    HW115779   0.987   4.737   3.513  0.4989  0.6406 -1.3568
 5260SOL    HW215780   0.934   4.874   3.546  1.2976  0.7851 -0.6296
 5261SOL     OW15781   3.480   1.376   1.432 -0.1767 -0.0063 -0.0829
 5261SOL    HW115782   3.533   1.381   1.512 -0.1285  1.4878 -0.1822
 5261SOL    HW215783   3.392   1.354   1.463  0.1937 -1.1324  0.2085
 5262SOL     OW15784   4.558   1.000   1.543  0.0841 -0.3620 -0.9823
 5262SOL    HW115785   4.560   1.095   1.531 -0.1415 -0.3025 -0.5680
 5262SOL    HW215786   4.568   0.988   1.637 -2.7086 -0.6128 -0.6232
 5263SOL     OW15787   4.383   2.129   1.617  0.3795  0.4379  0.6757
 5263SOL    HW115788   4.339   2.052   1.580 -0.3531  1.3157 -0.3419
 5263SOL    HW215789   4.317   2.199   1.612  0.3771  0.7301  3.2867
 5264SOL     OW15790   2.047   2.526   2.176 -0.0499 -0.5276  0.6582
 5264SOL    HW115791   2.065   2.481   2.094  1.8134  1.9171 -0.4207
 5264SOL    HW215792   2.072   2.464   2.244 -1.4860 -2.5508 -0.5610
 5265SOL     OW15793   2.157   2.701   3.520  0.5134 -0.1780  0.2098
 5265SOL    HW115794   2.112   2.624   3.556  0.6449 -0.6635 -0.6283
 5265SOL    HW215795   2.249   2.687   3.542  0.5578 -0.3439 -0.0704
 5266SOL     OW15796   3.915   2.934   4.748 -0.4569  0.4153  0.1933
 5266SOL    HW115797   3.982   2.995   4.777 -1.5696  0.6768  2.4525
 5266SOL    HW215798   3.836   2.987   4.738 -0.9149 -0.2776  0.0168
 5267SOL     OW15799   0.183   0.159   3.356  0.3137 -0.2115  0.1438
 5267SOL    HW115800   0.279   0.161   3.363  0.2644 -0.0050  0.8715
 5267SOL    HW215801   0.164   0.069   3.329  0.6736 -0.5307  0.8970
 5268SOL     OW15802   4.114   2.622   2.063  0.6384  0.3582 -0.2309
 5268SOL    HW115803   4.147   2.534   2.080 -0.7723 -0.0627  0.4588
 5268SOL    HW215804   4.093   2.623   1.969  1.2818  0.1812 -0.3755
 5269SOL     OW15805   1.611   2.144   0.564 -0.1113  0.5036 -0.0847
 5269SOL    HW115806   1.548   2.102   0.623  1.1026  0.4628  1.2624
 5269SOL    HW215807   1.633   2.077   0.500 -1.6285  0.6177 -0.7587
 5270SOL     OW15808   1.631   2.052   2.123 -0.1228  0.8080 -0.3046
 5270SOL    HW115809   1.665   2.125   2.175  1.0675  0.4304 -0.5296
 5270SOL    HW215810   1.536   2.065   2.123  0.0307  2.0709  0.0802
 5271SOL     OW15811   0.819   0.921   0.709  0.1840 -0.2381 -0.0978
 5271SOL    HW115812   0.823   0.861   0.783  0.7814 -0.6345 -0.4393
 5271SOL    HW215813   0.907   0.957   0.703  0.4125 -0.9481 -1.2089
 5272SOL     OW15814   3.664   3.902   0.609  0.2674  0.2685 -0.3529
 5272SOL    HW115815   3.670   3.997   0.602 -0.9588  0.6025  2.2944
 5272SOL    HW215816   3.588   3.879   0.555 -1.4218  1.2248  1.5067
 5273SOL     OW15817   3.862   2.998   3.592 -0.5098 -0.1871  0.1300
 5273SOL    HW115818   3.917   3.072   3.563  0.0999 -0.8305 -0.3922
 5273SOL    HW215819   3.777   3.014   3.553  0.1119 -0.6831 -1.5039
 5274SOL     OW15820   0.222   1.830   5.960  0.0768  0.1697 -0.5325
 5274SOL    HW115821   0.232   1.861   5.870 -1.3428 -0.1247 -0.8079
 5274SOL    HW215822   0.144   1.776   5.958  0.1080  0.0485  0.8599
 5275SOL     OW15823   3.524   2.585   2.906  0.0363 -0.1357 -0.1653
 5275SOL    HW115824   3.444   2.636   2.911  0.5731  0.5597  3.1267
 5275SOL    HW215825   3.593   2.645   2.936  1.6231 -1.1123 -1.6641
 5276SOL     OW15826   4.498   3.593   5.466  0.0178 -0.0137 -0.0712
 5276SOL    HW115827   4.448   3.658   5.515  1.4732  0.4682  0.8203
 5276SOL    HW215828   4.476   3.510   5.508 -1.4699 -0.0923 -0.9073
 5277SOL     OW15829   3.778   4.558   2.113  0.5510 -0.3052  0.4940
 5277SOL    HW115830   3.790   4.638   2.164  0.7930  1.0159 -1.5207
 5277SOL    HW215831   3.831   4.493   2.158  1.1335  0.9084  1.6357
 5278SOL     OW15832   3.278   2.489   2.361 -0.1753  0.1694 -0.6762
 5278SOL    HW115833   3.302   2.537   2.441 -1.3880  0.1406 -0.2704
 5278SOL    HW215834   3.334   2.525   2.293 -0.2072  1.2952 -0.1210
 5279SOL     OW15835   2.411   4.082   2.618  0.8182 -0.0733 -0.0877
 5279SOL    HW115836   2.482   4.030   2.581  1.7956  1.1814 -0.0390
 5279SOL    HW215837   2.430   4.172   2.590 -0.5650  0.3437  0.2198
 5280SOL     OW15838   4.776   3.107   0.105 -0.4177  0.7672 -0.3631
 5280SOL    HW115839   4.837   3.040   0.075 -0.4893  1.0051 -1.0531
 5280SOL    HW215840   4.704   3.105   0.042 -0.2901  1.6691 -0.5549
 5281SOL     OW15841   4.362   0.611   3.403 -0.5619 -0.6757 -0.0629
 5281SOL    HW115842   4.417   0.689   3.407  0.4200 -1.3943  0.8470
 5281SOL    HW215843   4.397   0.561   3.329 -0.3858 -0.8378  0.1289
 5282SOL     OW15844   0.823   1.470   2.429  0.8711 -0.2307 -0.1761
 5282SOL    HW115845   0.787   1.545   2.476  0.2894  0.1634 -1.2107
 5282SOL    HW215846   0.843   1.505   2.342 -0.5630 -1.5327 -1.0798
 5283SOL     OW15847   0.163   3.061   1.872  0.0558  0.2664  0.4551
 5283SOL    HW115848   0.117   3.137   1.835  0.6197  0.6344  0.4884
 5283SOL    HW215849   0.095   2.996   1.885 -0.1978  0.1637 -1.1101
 5284SOL     OW15850   5.300   4.740   0.580  0.6695 -0.3984 -0.1473
 5284SOL    HW115851   5.370   4.677   0.601  0.8333 -0.4290 -0.7655
 5284SOL    HW215852   5.332   4.823   0.615  1.5641 -0.1673 -1.4396
 5285SOL     OW15853   3.778   3.447   2.991 -0.6032  0.1360 -0.3187
 5285SOL    HW115854   3.802   3.457   2.899  1.4089  1.2131  0.2642
 5285SOL    HW215855   3.699   3.501   3.001  0.6710  2.2306 -0.8855
 5286SOL     OW15856   4.820   1.723   5.094  0.7777  0.7860  1.0036
 5286SOL    HW115857   4.830   1.671   5.014  1.1712  2.4601 -0.0914
 5286SOL    HW215858   4.908   1.729   5.130  0.7767  0.9234  0.9833
 5287SOL     OW15859   0.100   2.442   2.170  0.3471 -0.2144  0.0679
 5287SOL    HW115860   0.020   2.494   2.185 -0.1868 -1.0942  0.3517
 5287SOL    HW215861   0.128   2.467   2.081 -1.6382 -1.6621 -1.0463
 5288SOL     OW15862   2.739   5.965   1.621 -1.1510  0.2060 -0.1200
 5288SOL    HW115863   2.766   6.014   1.543  0.6107 -0.0168  0.3025
 5288SOL    HW215864   2.646   5.947   1.607 -1.0857  0.9331 -1.7472
 5289SOL     OW15865   3.077   3.315   5.768 -0.2881 -0.8143 -0.4070
 5289SOL    HW115866   3.143   3.246   5.760  1.2789  0.1504  2.6030
 5289SOL    HW215867   3.107   3.383   5.707 -0.4640 -1.7328 -1.5605
 5290SOL     OW15868   3.762   3.047   1.677 -0.5493 -0.1275 -0.1059
 5290SOL    HW115869   3.740   2.981   1.611 -1.9654  0.0431  0.1660
 5290SOL    HW215870   3.765   3.129   1.629  0.2968 -0.2607 -0.2837
 5291SOL     OW15871   1.122   0.828   2.041 -0.4794  0.5007 -0.6500
 5291SOL    HW115872   1.118   0.738   2.075 -0.8572  0.3327 -1.1275
 5291SOL    HW215873   1.214   0.842   2.019 -0.3283  0.4165 -0.0801
 5292SOL     OW15874   1.779   1.890   4.784 -0.1903  0.0731  0.2143
 5292SOL    HW115875   1.789   1.985   4.793  3.8434 -0.0781 -0.6960
 5292SOL    HW215876   1.754   1.860   4.871  0.0024  1.8242  0.9177
 5293SOL     OW15877   4.961   1.693   2.547 -0.2832  0.0589  0.6905
 5293SOL    HW115878   5.010   1.756   2.600  0.6045  1.1563 -1.3269
 5293SOL    HW215879   5.002   1.608   2.566 -0.7580  0.2184  2.5912
 5294SOL     OW15880   3.958   5.264   4.113  0.1238 -0.0973  0.1182
 5294SOL    HW115881   3.945   5.231   4.202  0.8352  3.0189  1.5364
 5294SOL    HW215882   4.044   5.306   4.116  0.9902 -1.4534 -2.6396
 5295SOL     OW15883   3.820   4.044   3.328 -0.2736 -0.0973  0.9386
 5295SOL    HW115884   3.765   3.967   3.342  0.7501 -0.6828  1.8428
 5295SOL    HW215885   3.830   4.083   3.415  1.0854 -0.2469  0.8735
 5296SOL     OW15886   0.408   3.636   1.094  0.3656  0.0336  0.3279
 5296SOL    HW115887   0.314   3.625   1.082  0.0031  2.6679  0.1917
 5296SOL    HW215888   0.416   3.696   1.168  1.8645  0.8170 -0.4199
 5297SOL     OW15889   4.200   3.662   2.007  0.2396 -0.6050  0.0566
 5297SOL    HW115890   4.109   3.635   2.024  0.5427 -1.5898  0.1812
 5297SOL    HW215891   4.236   3.680   2.094  0.2088 -0.3656  0.0196
 5298SOL     OW15892   4.896   5.813   2.115  0.0743 -0.4931 -0.4925
 5298SOL    HW115893   4.873   5.779   2.028  1.7168 -1.4404 -0.5858
 5298SOL    HW215894   4.985   5.847   2.104  0.4097 -0.8907  0.8892
 5299SOL     OW15895   3.970   0.189   1.704  0.5607 -0.4489  0.0779
 5299SOL    HW115896   3.958   0.200   1.610  1.2749 -1.5778 -0.1682
 5299SOL    HW215897   3.965   0.278   1.740 -1.0771 -0.1290 -0.8437
 5300SOL     OW15898   3.112   2.537   5.888  0.1376 -0.6463  0.0303
 5300SOL    HW115899   3.059   2.594   5.944 -0.1163  0.4620 -1.3093
 5300SOL    HW215900   3.201   2.546   5.922 -0.2759 -1.4439  1.4128
 5301SOL     OW15901   2.593   1.037   5.854  0.6963 -0.1681  0.0646
 5301SOL    HW115902   2.641   0.986   5.920  0.7405 -0.4671 -0.1990
 5301SOL    HW215903   2.599   1.127   5.885  2.7292  0.0233 -0.7438
 5302SOL     OW15904   0.444   2.294   1.671 -0.2560 -0.6852  0.0970
 5302SOL    HW115905   0.519   2.264   1.620 -0.0902  0.7323 -0.5349
 5302SOL    HW215906   0.442   2.236   1.747  1.2211 -1.0181 -0.0854
 5303SOL     OW15907   3.151   5.153   1.667  0.2508 -0.2315 -0.7896
 5303SOL    HW115908   3.062   5.186   1.654 -0.3242 -1.8284 -1.0256
 5303SOL    HW215909   3.140   5.061   1.690  1.6847  0.2448  2.2707
 5304SOL     OW15910   5.573   2.500   5.611 -0.1047  0.4985 -0.3604
 5304SOL    HW115911   5.636   2.455   5.556  0.0450 -0.8519  0.8750
 5304SOL    HW215912   5.535   2.567   5.553 -1.1586 -1.8745 -2.6686
 5305SOL     OW15913   3.956   4.305   1.911  0.0736 -0.1526  0.2064
 5305SOL    HW115914   3.962   4.299   1.816 -0.2147 -2.2377  0.2619
 5305SOL    HW215915   3.875   4.354   1.927 -0.4174 -0.6668 -0.6345
 5306SOL     OW15916   5.085   2.279   1.449 -0.1463  0.4415  0.7590
 5306SOL    HW115917   5.131   2.347   1.400 -0.9676  0.2037 -0.4024
 5306SOL    HW215918   5.035   2.326   1.515 -0.3530  0.9391  0.2559
 5307SOL     OW15919   3.622   0.474   1.817  0.6420 -0.0572  0.5541
 5307SOL    HW115920   3.625   0.550   1.876 -2.0426 -0.2817  1.1004
 5307SOL    HW215921   3.557   0.416   1.856  0.1536 -1.0873 -1.6493
 5308SOL     OW15922   0.814   5.802   2.604  0.0211 -0.0157 -0.1222
 5308SOL    HW115923   0.835   5.708   2.604 -0.7386 -0.1945 -0.5431
 5308SOL    HW215924   0.891   5.843   2.564 -0.1751 -0.6040 -1.1530
 5309SOL     OW15925   4.993   1.385   1.639  0.2197 -0.0990  0.2721
 5309SOL    HW115926   4.962   1.362   1.726 -0.4644 -1.0064 -0.1949
 5309SOL    HW215927   4.961   1.475   1.625 -1.1328 -0.5522  0.3094
 5310SOL     OW15928   1.064   0.533   1.280  0.2573  0.5282  0.4352
 5310SOL    HW115929   0.972   0.522   1.305 -0.1649  3.0747  0.2048
 5310SOL    HW215930   1.113   0.511   1.359 -0.6726  1.3172  1.2492
 5311SOL     OW15931   4.067   2.636   1.798 -0.6461 -0.2305  0.3026
 5311SOL    HW115932   4.109   2.561   1.756  1.3206  0.6917  0.5238
 5311SOL    HW215933   4.076   2.708   1.735  1.2205  0.8468  1.6705
 5312SOL     OW15934   2.547   2.620   4.344 -0.5154 -0.2073 -0.3032
 5312SOL    HW115935   2.534   2.557   4.273  2.0024 -0.0096 -1.0279
 5312SOL    HW215936   2.641   2.619   4.361 -0.9139  0.3038  2.5771
 5313SOL     OW15937   1.370   2.990   0.418  0.1850 -0.4263  0.5124
 5313SOL    HW115938   1.331   2.908   0.387 -0.7471  0.2737 -0.2121
 5313SOL    HW215939   1.345   2.995   0.511 -0.8326 -0.3490  0.2390
 5314SOL     OW15940   2.702   5.236   4.112 -0.1017  0.0119  0.0021
 5314SOL    HW115941   2.750   5.209   4.191  1.3101  1.0661 -0.4710
 5314SOL    HW215942   2.684   5.329   4.125 -2.5610 -0.4383  0.3995
 5315SOL     OW15943   4.859   4.861   3.874  0.1483  0.3966  0.3197
 5315SOL    HW115944   4.825   4.780   3.912  0.6482  0.3839  0.7537
 5315SOL    HW215945   4.946   4.838   3.842  1.0233  1.1615  2.0157
 5316SOL     OW15946   1.146   1.997   2.947  0.2715 -0.3896  0.3581
 5316SOL    HW115947   1.085   2.017   3.018  0.3404  1.9657 -0.1456
 5316SOL    HW215948   1.092   1.958   2.878 -0.5243  0.7874  0.2889
 5317SOL     OW15949   0.157   3.569   1.039  0.7200 -0.6088 -0.0547
 5317SOL    HW115950   0.084   3.522   1.080  0.3802  0.3013  0.4285
 5317SOL    HW215951   0.139   3.566   0.945  0.3572 -0.8832  0.0241
 5318SOL     OW15952   3.814   2.250   2.545 -0.1909  0.5810 -0.4326
 5318SOL    HW115953   3.808   2.155   2.552 -2.0632  0.6749 -0.1708
 5318SOL    HW215954   3.890   2.265   2.489 -0.8766 -1.1283 -1.9398
 5319SOL     OW15955   2.180   0.400   5.886 -0.2083  0.0645 -0.8120
 5319SOL    HW115956   2.091   0.366   5.897 -1.6418  3.7271  0.3248
 5319SOL    HW215957   2.168   0.486   5.847  2.8808  0.6884 -0.6286
 5320SOL     OW15958   2.790   2.519   3.262  0.3116 -0.3475  0.3513
 5320SOL    HW115959   2.808   2.430   3.291 -1.6016 -0.2657  1.9898
 5320SOL    HW215960   2.851   2.573   3.314 -0.1996 -0.5339  1.1630
 5321SOL     OW15961   5.361   4.334   0.734 -0.1669 -0.3169  0.2350
 5321SOL    HW115962   5.284   4.377   0.697  0.9762  1.9026  0.2178
 5321SOL    HW215963   5.396   4.399   0.796  1.5415 -1.3436  0.4013
 5322SOL     OW15964   3.810   1.100   2.710 -0.2711 -0.8586  0.2838
 5322SOL    HW115965   3.809   1.064   2.622  0.4404 -4.3985  1.5471
 5322SOL    HW215966   3.779   1.028   2.766  0.2427  0.8941  3.0303
 5323SOL     OW15967   2.723   1.481   0.950 -0.1609  0.4281 -0.1636
 5323SOL    HW115968   2.666   1.535   0.895 -0.9680 -0.7397 -0.5096
 5323SOL    HW215969   2.797   1.460   0.894  0.3859  1.5433  0.1244
 5324SOL     OW15970   4.765   3.997   4.365  0.1270 -0.8068  0.3683
 5324SOL    HW115971   4.745   3.904   4.380 -0.6719 -1.1049 -2.0727
 5324SOL    HW215972   4.704   4.044   4.421 -0.6497 -1.7556  0.3461
 5325SOL     OW15973   5.515   1.500   2.293  0.7339  0.1253 -0.3455
 5325SOL    HW115974   5.535   1.585   2.254  0.8933 -0.1074 -0.7771
 5325SOL    HW215975   5.519   1.438   2.220 -0.8192 -0.0487 -0.3218
 5326SOL     OW15976   2.726   0.835   1.468  0.4347 -0.1832  0.4570
 5326SOL    HW115977   2.768   0.859   1.385 -2.3725 -0.8128 -1.2840
 5326SOL    HW215978   2.796   0.796   1.520  1.8985 -1.8272 -2.5022
 5327SOL     OW15979   3.919   0.355   0.903 -0.5937 -0.4130 -0.0737
 5327SOL    HW115980   3.853   0.364   0.972 -0.3743 -2.0864  0.3937
 5327SOL    HW215981   3.991   0.411   0.931  0.3516 -2.6018  2.1755
 5328SOL     OW15982   3.211   4.009   2.160 -0.1872 -0.5042  0.0710
 5328SOL    HW115983   3.138   4.066   2.183 -0.1903 -1.5076  2.8202
 5328SOL    HW215984   3.171   3.923   2.145  0.3977 -1.1317  1.8894
 5329SOL     OW15985   3.750   5.904   3.261  0.0930  0.1869 -0.0959
 5329SOL    HW115986   3.670   5.953   3.282 -0.5082 -1.4711  1.7456
 5329SOL    HW215987   3.769   5.855   3.340  2.2671 -0.4167 -0.9345
 5330SOL     OW15988   4.502   2.622   4.096 -0.3895 -0.0281 -0.0749
 5330SOL    HW115989   4.448   2.681   4.148 -0.1557 -1.4276  1.8559
 5330SOL    HW215990   4.589   2.628   4.135 -0.6208 -2.5221  1.0739
 5331SOL     OW15991   5.543   2.497   0.229 -0.6208  0.3480  0.0601
 5331SOL    HW115992   5.555   2.549   0.149  1.6603  1.3451  0.9708
 5331SOL    HW215993   5.585   2.548   0.297  1.0822 -2.3228  1.1711
 5332SOL     OW15994   2.788   3.533   3.263  0.2453 -0.4635 -0.3950
 5332SOL    HW115995   2.874   3.518   3.303  0.3636 -1.7536 -1.0750
 5332SOL    HW215996   2.803   3.603   3.199  0.4259  0.4241  0.5952
 5333SOL     OW15997   5.842   5.597   3.619 -0.2019 -0.3722  0.1285
 5333SOL    HW115998   5.776   5.583   3.687  0.1047  3.0241  1.3763
 5333SOL    HW215999   5.798   5.653   3.554  0.8956  0.5088  0.1109
 5334SOL     OW16000   5.278   1.756   0.479 -0.0187 -0.7002  0.0026
 5334SOL    HW116001   5.221   1.833   0.471  0.3439 -0.5488 -1.5008
 5334SOL    HW216002   5.237   1.691   0.422  0.1110 -1.3582  0.6551
 5335SOL     OW16003   3.642   2.379   0.919  0.1799 -0.2860  0.2458
 5335SOL    HW116004   3.702   2.422   0.980 -1.5113  1.6795  0.6520
 5335SOL    HW216005   3.666   2.413   0.833  0.4800 -0.5193  0.2375
 5336SOL     OW16006   4.816   1.118   1.844 -0.0555  0.4652  0.0488
 5336SOL    HW116007   4.838   1.043   1.899  2.1049 -0.2419 -1.6708
 5336SOL    HW216008   4.898   1.145   1.804 -1.2069  2.1757 -1.3599
 5337SOL     OW16009   3.919   2.697   2.244  0.5406 -0.1088  0.8876
 5337SOL    HW116010   3.939   2.677   2.153 -0.8295  1.2889  0.2444
 5337SOL    HW216011   3.841   2.644   2.263  0.6020 -0.1088  1.1401
 5338SOL     OW16012   2.822   0.641   3.022  0.2586 -0.2363 -0.4251
 5338SOL    HW116013   2.767   0.574   3.062 -1.8446  0.3146 -2.2039
 5338SOL    HW216014   2.899   0.594   2.991 -0.8351 -1.7129 -0.9830
 5339SOL     OW16015   1.266   5.057   2.236 -0.1033  0.3262 -0.1015
 5339SOL    HW116016   1.327   5.113   2.189 -0.1508  0.2042 -0.3071
 5339SOL    HW216017   1.252   5.102   2.320  3.0607 -1.3719  1.4951
 5340SOL     OW16018   4.651   5.954   2.195  0.4842  0.1453 -0.2682
 5340SOL    HW116019   4.690   6.003   2.123  0.1237 -0.2818 -0.7605
 5340SOL    HW216020   4.704   5.875   2.202 -0.4619 -0.6056 -1.1699
 5341SOL     OW16021   4.397   4.528   3.671 -0.3547 -0.2454 -0.0874
 5341SOL    HW116022   4.461   4.548   3.603 -0.2614 -1.8002 -0.4945
 5341SOL    HW216023   4.313   4.531   3.626 -0.4741  0.5465  0.1657
 5342SOL     OW16024   3.544   1.216   1.819 -0.5715 -0.7043  0.5939
 5342SOL    HW116025   3.589   1.228   1.902  0.9827  1.2089 -0.4494
 5342SOL    HW216026   3.602   1.158   1.769  0.1662  0.7541 -0.2968
 5343SOL     OW16027   2.915   2.373   3.626  0.2521 -0.2687 -0.5040
 5343SOL    HW116028   2.920   2.323   3.707 -1.1973 -0.3843 -0.4555
 5343SOL    HW216029   2.953   2.458   3.647 -0.5439 -0.1351  0.4462
 5344SOL     OW16030   4.348   3.279   3.289 -0.0073 -0.4453  0.1603
 5344SOL    HW116031   4.357   3.301   3.382 -1.2000 -0.8295  0.3906
 5344SOL    HW216032   4.257   3.249   3.281  0.0384 -0.2615 -1.1657
 5345SOL     OW16033   4.375   1.557   2.029 -0.4628 -0.1704 -0.2885
 5345SOL    HW116034   4.323   1.594   2.100  1.4331  0.5971  0.7773
 5345SOL    HW216035   4.356   1.613   1.953 -1.9335 -0.5497 -0.2405
 5346SOL     OW16036   5.399   1.766   2.664 -0.2099  0.2692 -0.1118
 5346SOL    HW116037   5.494   1.758   2.652 -0.0145  1.2158  0.6709
 5346SOL    HW216038   5.363   1.761   2.575  0.4053 -1.7677 -0.3049
 5347SOL     OW16039   3.162   4.567   2.447  0.2120  0.0217 -0.5678
 5347SOL    HW116040   3.200   4.590   2.362 -1.9080  0.9967 -1.3008
 5347SOL    HW216041   3.126   4.479   2.434  0.0085  0.1148 -0.6305
 5348SOL     OW16042   5.822   5.736   1.289  0.2209 -0.7028  0.3096
 5348SOL    HW116043   5.752   5.727   1.224  0.4293 -0.3716  0.0392
 5348SOL    HW216044   5.878   5.805   1.255 -1.6109  2.1460  2.5797
 5349SOL     OW16045   4.997   3.660   0.359  0.0265 -0.9216  0.1203
 5349SOL    HW116046   4.930   3.612   0.408 -2.1217  0.1475 -1.6188
 5349SOL    HW216047   5.007   3.611   0.277 -0.7438  0.4397 -0.8248
 5350SOL     OW16048   0.496   5.485   4.261  0.4204 -0.2710  0.3784
 5350SOL    HW116049   0.407   5.475   4.297  0.0700  1.7298  0.2010
 5350SOL    HW216050   0.537   5.551   4.317  0.5438  1.4700 -1.6225
 5351SOL     OW16051   0.743   3.538   0.012  0.3554 -0.2715  0.3658
 5351SOL    HW116052   0.675   3.490   0.059  0.2740 -1.1614 -0.6186
 5351SOL    HW216053   0.823   3.488   0.028  0.6073  0.2417  0.7448
 5352SOL     OW16054   5.909   0.724   3.736 -0.1236  0.0633 -1.0494
 5352SOL    HW116055   5.820   0.693   3.751  0.4794 -2.5260 -2.2792
 5352SOL    HW216056   5.927   0.702   3.644  1.2012  2.1492 -1.3534
 5353SOL     OW16057   5.025   1.279   5.007  0.6359  0.3315 -0.5317
 5353SOL    HW116058   5.066   1.256   4.924  2.0129  0.3660  0.0940
 5353SOL    HW216059   5.010   1.194   5.050  0.6899  0.3442 -0.4864
 5354SOL     OW16060   0.199   2.877   2.145 -0.8673 -0.2296  0.3985
 5354SOL    HW116061   0.206   2.945   2.078 -0.7550 -1.1445 -0.5568
 5354SOL    HW216062   0.105   2.864   2.157 -0.8988  0.6197  1.1552
 5355SOL     OW16063   5.047   5.189   3.125  0.0823 -0.3852 -0.1186
 5355SOL    HW116064   5.107   5.228   3.062 -0.1960 -0.3006 -0.3321
 5355SOL    HW216065   5.094   5.111   3.157 -0.1806 -0.9925 -1.1682
 5356SOL     OW16066   2.118   2.157   1.555 -0.3636  0.5979  0.0022
 5356SOL    HW116067   2.134   2.230   1.495 -1.0928  1.2852  0.6273
 5356SOL    HW216068   2.200   2.148   1.604  0.5217 -0.4591 -1.5481
 5357SOL     OW16069   4.207   3.144   3.825  0.2010 -0.0411 -0.0488
 5357SOL    HW116070   4.195   3.118   3.917  1.1247  0.2632  0.1669
 5357SOL    HW216071   4.277   3.209   3.828 -1.5536  1.9655 -0.6759
 5358SOL     OW16072   5.531   2.894   3.329 -0.1965  0.0333  0.4562
 5358SOL    HW116073   5.543   2.965   3.392  0.1246 -1.4383  2.1747
 5358SOL    HW216074   5.457   2.844   3.363 -2.3625  1.0791 -2.3216
 5359SOL     OW16075   2.865   3.707   3.056  0.7967  0.3806  0.1440
 5359SOL    HW116076   2.894   3.696   2.965  0.8650 -2.0394  0.4035
 5359SOL    HW216077   2.810   3.785   3.053  2.0667  1.2989 -1.6374
 5360SOL     OW16078   5.137   2.167   3.656  0.1646  0.0127  0.2829
 5360SOL    HW116079   5.052   2.210   3.669  0.9188  1.1700  1.6549
 5360SOL    HW216080   5.117   2.074   3.667 -0.7230  0.3561  2.0430
 5361SOL     OW16081   5.617   1.899   4.801  0.6227  0.2425  0.3973
 5361SOL    HW116082   5.554   1.876   4.732  0.3321  0.6082  0.5380
 5361SOL    HW216083   5.670   1.820   4.811 -1.7261 -1.2377  2.4134
 5362SOL     OW16084   4.558   1.670   5.115  0.0734  0.6483  0.0362
 5362SOL    HW116085   4.508   1.707   5.042  0.3064  1.4853  0.2816
 5362SOL    HW216086   4.648   1.700   5.100  0.3625 -0.2204 -0.0007
 5363SOL     OW16087   5.781   5.605   2.703  0.7821 -0.0980  0.0560
 5363SOL    HW116088   5.754   5.520   2.738 -0.2232  0.1341 -0.1319
 5363SOL    HW216089   5.818   5.652   2.778 -0.2156 -0.0691  0.5334
 5364SOL     OW16090   4.749   2.813   2.487 -0.3627  0.3691  0.1073
 5364SOL    HW116091   4.799   2.827   2.567 -0.0064 -0.2519  0.0000
 5364SOL    HW216092   4.679   2.878   2.490 -0.1861  0.5296  0.7861
 5365SOL     OW16093   3.595   2.724   4.184 -0.4681  0.0442  0.0249
 5365SOL    HW116094   3.625   2.717   4.275  2.1380  0.9313 -0.6695
 5365SOL    HW216095   3.573   2.634   4.160  0.4785 -0.4928  1.0380
 5366SOL     OW16096   2.270   1.967   2.469 -0.6106 -0.1077  0.1399
 5366SOL    HW116097   2.287   2.044   2.523 -0.8609  0.7482 -0.9782
 5366SOL    HW216098   2.353   1.951   2.425 -0.6057 -0.3907  0.2500
 5367SOL     OW16099   0.418   1.680   5.608 -0.1449  0.3456  0.4090
 5367SOL    HW116100   0.428   1.767   5.648 -1.1624  0.9562 -0.5953
 5367SOL    HW216101   0.353   1.636   5.662 -0.3713  0.5891  0.3361
 5368SOL     OW16102   4.749   4.826   1.908 -0.4898  0.5156  0.6664
 5368SOL    HW116103   4.730   4.910   1.951 -2.3819  0.7190 -0.4819
 5368SOL    HW216104   4.750   4.763   1.979 -0.0620  1.3419  1.4241
 5369SOL     OW16105   3.073   2.560   2.655 -0.3424 -0.4236 -0.0426
 5369SOL    HW116106   3.054   2.639   2.603 -1.4581  1.1582  2.5536
 5369SOL    HW216107   3.008   2.496   2.626 -1.5496  0.7262  0.0136
 5370SOL     OW16108   4.153   1.773   5.567  0.1545  0.1381 -0.0672
 5370SOL    HW116109   4.076   1.823   5.542 -0.1658 -0.8364 -1.0831
 5370SOL    HW216110   4.204   1.765   5.486  1.4616  0.9755  0.6354
 5371SOL     OW16111   1.526   3.780   0.808 -1.0121  0.0618 -0.2740
 5371SOL    HW116112   1.579   3.707   0.840 -0.8307  1.0002  1.6717
 5371SOL    HW216113   1.443   3.772   0.854 -0.9465  1.1450  0.0554
 5372SOL     OW16114   3.834   3.814   2.696 -0.2153  1.1340 -0.3015
 5372SOL    HW116115   3.772   3.747   2.668  0.5206  0.5657 -0.5958
 5372SOL    HW216116   3.883   3.835   2.617  1.1495  0.2987  0.2985
 5373SOL     OW16117   3.870   0.843   4.355 -0.5618 -0.0071 -0.2749
 5373SOL    HW116118   3.883   0.914   4.418 -0.6544  0.9913 -1.3596
 5373SOL    HW216119   3.778   0.817   4.367 -0.5122  0.0016  0.1546
 5374SOL     OW16120   1.326   2.858   1.444 -0.0435 -0.2072 -0.0549
 5374SOL    HW116121   1.249   2.837   1.497 -1.3515  1.4281 -1.2044
 5374SOL    HW216122   1.344   2.950   1.463  0.8925 -0.2512 -0.7030
 5375SOL     OW16123   4.481   3.550   4.024  0.6625 -0.0785  0.0999
 5375SOL    HW116124   4.414   3.494   3.985  0.6347 -0.5937  0.8748
 5375SOL    HW216125   4.561   3.498   4.022  0.5554 -0.3068  1.1660
 5376SOL     OW16126   4.213   5.178   5.968  0.0348  0.0110  0.1049
 5376SOL    HW116127   4.305   5.169   5.990  0.4025  0.4825 -1.1220
 5376SOL    HW216128   4.186   5.090   5.942  0.9381  0.3625 -2.2668
 5377SOL     OW16129   5.280   1.830   0.929 -0.2690 -0.4397  0.9225
 5377SOL    HW116130   5.342   1.859   0.995 -0.0914 -0.1515  0.6338
 5377SOL    HW216131   5.231   1.909   0.906  1.2775  0.0546 -1.0088
 5378SOL     OW16132   5.931   2.026   1.516  0.2163  0.3912 -0.0857
 5378SOL    HW116133   5.968   1.974   1.445 -0.1296  0.7074 -0.5036
 5378SOL    HW216134   5.965   1.986   1.596 -0.7965 -1.0727 -0.3627
 5379SOL     OW16135   4.939   5.422   3.232  0.2271 -0.2660  0.6736
 5379SOL    HW116136   4.874   5.358   3.261 -0.5006 -1.0348 -2.2503
 5379SOL    HW216137   5.005   5.370   3.187  0.8413  0.8380  0.2523
 5380SOL     OW16138   3.729   4.497   1.854 -0.3606  0.3310 -0.5039
 5380SOL    HW116139   3.749   4.525   1.943  1.0452 -1.4809 -0.1956
 5380SOL    HW216140   3.779   4.557   1.799 -0.0427  0.5380  0.0010
 5381SOL     OW16141   4.775   2.532   3.882 -0.0326 -0.1287 -0.2552
 5381SOL    HW116142   4.698   2.546   3.826  0.2108  1.1104 -0.2994
 5381SOL    HW216143   4.768   2.440   3.908 -0.8267 -0.3946 -1.3076
 5382SOL     OW16144   0.077   0.539   2.092  0.2102  0.0262 -0.1087
 5382SOL    HW116145   0.132   0.595   2.037 -1.0343  1.4980  0.0884
 5382SOL    HW216146   0.139   0.477   2.132  1.6990  1.4423 -0.1093
 5383SOL     OW16147   3.844   0.709   4.691  0.0958  0.3787 -0.3214
 5383SOL    HW116148   3.848   0.677   4.601  0.4746  1.6853 -0.7974
 5383SOL    HW216149   3.855   0.804   4.683 -2.4824  0.8539  0.8890
 5384SOL     OW16150   0.413   3.722   2.148  0.5590 -0.2086 -0.1368
 5384SOL    HW116151   0.462   3.701   2.227 -1.1514  0.2870  1.1148
 5384SOL    HW216152   0.431   3.815   2.132  1.0930 -0.3677 -0.4851
 5385SOL     OW16153   2.910   1.814   0.456 -0.0186  0.3542  0.1026
 5385SOL    HW116154   2.829   1.770   0.484  0.0212  0.5364  0.5081
 5385SOL    HW216155   2.900   1.824   0.362 -0.2964  0.0169  0.0945
 5386SOL     OW16156   0.300   3.373   1.310  0.4075 -0.1150  0.8361
 5386SOL    HW116157   0.351   3.356   1.231 -0.1506 -0.0180  0.4501
 5386SOL    HW216158   0.348   3.443   1.354 -0.0380  0.8337 -0.1425
 5387SOL     OW16159   4.018   1.446   5.165  0.0521  0.4661  0.4194
 5387SOL    HW116160   4.063   1.363   5.181 -0.6705 -0.0802 -0.3130
 5387SOL    HW216161   4.059   1.480   5.085 -1.4537 -0.5086 -0.8086
 5388SOL     OW16162   2.742   2.059  -0.002  0.3380 -0.2058 -0.1089
 5388SOL    HW116163   2.733   2.146   0.037 -0.9108 -0.1782 -0.4120
 5388SOL    HW216164   2.813   2.017   0.047  3.6409  2.2600 -2.3462
 5389SOL     OW16165   5.141   4.359   2.981  0.0716  0.1017  0.0273
 5389SOL    HW116166   5.215   4.302   2.961 -1.6309 -1.0185 -4.3659
 5389SOL    HW216167   5.070   4.298   3.004 -0.5168  0.7996  0.0973
 5390SOL     OW16168   3.868   1.124   2.008 -0.1877 -0.2315 -0.0196
 5390SOL    HW116169   3.878   1.042   2.056  0.0973  0.7810  1.7471
 5390SOL    HW216170   3.948   1.173   2.027 -0.6334  0.7145 -0.5092
 5391SOL     OW16171   0.244   2.041   3.427 -0.2915  0.4875 -0.1627
 5391SOL    HW116172   0.305   2.085   3.486  2.2815 -1.2120 -1.3479
 5391SOL    HW216173   0.217   2.108   3.365 -0.3327  1.4828  0.9024
 5392SOL     OW16174   4.579   3.992   2.445 -0.2153  0.3785 -0.0931
 5392SOL    HW116175   4.599   4.051   2.517 -0.7381 -0.5335  0.8078
 5392SOL    HW216176   4.665   3.974   2.405  0.2899 -0.2636  1.2145
 5393SOL     OW16177   3.642   2.844   1.508 -0.4903  0.2384 -0.4222
 5393SOL    HW116178   3.561   2.846   1.457 -0.3980 -0.3635 -0.6040
 5393SOL    HW216179   3.628   2.776   1.574  1.6580 -3.8031 -3.6511
 5394SOL     OW16180   1.112   2.614   3.262  0.5372  0.0995  0.0019
 5394SOL    HW116181   1.096   2.655   3.347  1.3673 -1.5485  1.0058
 5394SOL    HW216182   1.194   2.652   3.232  0.2496  0.6754 -0.0728
 5395SOL     OW16183   3.780   2.945   3.104  0.0308 -0.1926  0.0070
 5395SOL    HW116184   3.767   2.990   3.188  0.1442  0.1745 -0.1682
 5395SOL    HW216185   3.779   2.852   3.126 -1.6556 -0.1649  0.1722
 5396SOL     OW16186   0.205   2.512   3.873 -0.3285 -0.9144  0.3300
 5396SOL    HW116187   0.134   2.473   3.924 -1.5697 -0.1951 -0.7577
 5396SOL    HW216188   0.198   2.471   3.787  0.2304 -0.4320  0.0442
 5397SOL     OW16189   2.556   0.329   1.665  0.6161  0.0368  0.8082
 5397SOL    HW116190   2.493   0.357   1.599  0.5064 -1.3247  0.3131
 5397SOL    HW216191   2.640   0.366   1.635  0.4862 -0.1941  0.1533
 5398SOL     OW16192   0.701   0.120   2.984 -0.6540  0.2075 -0.3542
 5398SOL    HW116193   0.756   0.098   2.910 -0.1037  0.7647 -0.1192
 5398SOL    HW216194   0.751   0.092   3.061 -0.4607  1.1664 -0.1151
 5399SOL     OW16195   5.017   1.511   3.430  0.2156  0.0413 -0.3097
 5399SOL    HW116196   5.105   1.481   3.410 -0.1702 -0.6754 -0.9722
 5399SOL    HW216197   4.981   1.539   3.346 -0.5293 -0.5896 -0.2130
 5400SOL     OW16198   4.810   5.000   2.338  0.2516  0.2867  0.2738
 5400SOL    HW116199   4.832   5.085   2.300 -0.6991  0.6528  0.5207
 5400SOL    HW216200   4.889   4.974   2.385  1.5898 -0.3380 -2.1467
 5401SOL     OW16201   0.310   3.383   2.573 -0.1625  0.2792  0.3812
 5401SOL    HW116202   0.269   3.467   2.552 -1.2380 -0.3715 -0.2190
 5401SOL    HW216203   0.335   3.391   2.665 -1.8907  0.6370  0.8697
 5402SOL     OW16204   0.957   2.839   3.982 -0.3657 -0.6138 -0.2562
 5402SOL    HW116205   0.980   2.825   4.073 -0.2517 -1.0396 -0.3493
 5402SOL    HW216206   0.935   2.932   3.977 -1.5970 -0.8487  0.4623
 5403SOL     OW16207   3.520   5.923   5.500  0.0532 -0.5092 -0.4256
 5403SOL    HW116208   3.482   6.008   5.521 -1.9901 -0.6146 -3.1347
 5403SOL    HW216209   3.563   5.895   5.581  1.0833  3.1849  0.5075
 5404SOL     OW16210   0.331   1.640   4.214 -0.1560 -0.5886  0.5774
 5404SOL    HW116211   0.425   1.661   4.218  0.7705 -3.6297 -1.6887
 5404SOL    HW216212   0.310   1.608   4.301  0.9367 -0.0322  1.0742
 5405SOL     OW16213   3.578   3.641   3.098  0.0728 -0.2177 -0.1150
 5405SOL    HW116214   3.490   3.610   3.121 -0.1916  1.6535  1.7194
 5405SOL    HW216215   3.585   3.726   3.141  2.3263  0.2812 -1.3170
 5406SOL     OW16216   2.925   4.028   4.796 -0.3626 -0.1038 -0.6394
 5406SOL    HW116217   2.933   4.010   4.703 -1.1999 -2.9811 -0.2648
 5406SOL    HW216218   3.013   4.011   4.831 -0.3095 -0.0870 -0.7639
 5407SOL     OW16219   4.730   0.328   3.988 -0.1546  0.4632 -0.0556
 5407SOL    HW116220   4.699   0.374   4.065  1.9174  0.8279  0.6243
 5407SOL    HW216221   4.776   0.395   3.937  2.0531 -0.5570  0.4692
 5408SOL     OW16222   4.203   2.583   2.624  0.2012 -0.0175  0.2093
 5408SOL    HW116223   4.233   2.591   2.533 -0.6327 -0.4195 -0.1087
 5408SOL    HW216224   4.264   2.520   2.663  0.2355 -0.2544 -0.2177
 5409SOL     OW16225   0.583   0.363   2.483 -0.2671  0.8139 -0.3055
 5409SOL    HW116226   0.668   0.396   2.453 -0.3643  0.5549 -0.8738
 5409SOL    HW216227   0.590   0.268   2.472 -1.2230  0.9085 -1.9262
 5410SOL     OW16228   0.836   2.914   2.145  0.1853  0.4817 -0.0344
 5410SOL    HW116229   0.819   2.828   2.185  2.0094 -0.6927 -1.5811
 5410SOL    HW216230   0.754   2.961   2.154 -1.1851 -1.7673  0.1282
 5411SOL     OW16231   0.917   3.856   2.588  0.2190  0.7156 -0.2257
 5411SOL    HW116232   0.874   3.771   2.593  1.4507  0.0994  0.2831
 5411SOL    HW216233   0.852   3.913   2.546 -1.5883  0.1722  1.6856
 5412SOL     OW16234   5.215   0.493   1.129 -0.0485 -0.2000 -0.5794
 5412SOL    HW116235   5.167   0.413   1.110 -0.9340 -0.1668  1.2819
 5412SOL    HW216236   5.263   0.512   1.049 -0.5304 -2.0808 -1.3660
 5413SOL     OW16237   5.358   2.807   1.760  0.2810 -0.1326  0.3323
 5413SOL    HW116238   5.374   2.722   1.719 -1.2019 -0.7877  1.0537
 5413SOL    HW216239   5.375   2.792   1.853 -1.0348  0.0525  0.6178
 5414SOL     OW16240   5.178   1.609   4.639  0.0836 -0.1521  0.3443
 5414SOL    HW116241   5.200   1.677   4.575  1.7644 -0.3275  0.6929
 5414SOL    HW216242   5.262   1.584   4.678 -0.9363  0.9283  3.6386
 5415SOL     OW16243   3.507   3.753   2.542  0.4923 -0.1504 -0.4651
 5415SOL    HW116244   3.507   3.757   2.638 -0.5534 -0.1481 -0.4537
 5415SOL    HW216245   3.536   3.840   2.515  2.6453 -0.7128 -0.1737
 5416SOL     OW16246   2.625   3.745   3.759  0.3570  0.5667  0.0709
 5416SOL    HW116247   2.531   3.746   3.744  0.5643  1.2947 -1.2989
 5416SOL    HW216248   2.663   3.717   3.676  1.2894 -1.6388  1.1462
 5417SOL     OW16249   5.100   5.952   3.787 -0.4920 -0.7046 -0.0201
 5417SOL    HW116250   5.160   5.936   3.860  0.5816  0.7812 -0.5289
 5417SOL    HW216251   5.041   6.021   3.818 -1.3210 -1.4523  0.1161
 5418SOL     OW16252   1.573   5.795   3.429 -0.4061  0.4205 -0.1935
 5418SOL    HW116253   1.621   5.752   3.500 -0.9811  0.3691  0.1768
 5418SOL    HW216254   1.636   5.856   3.391 -0.1848  0.6923  0.5857
 5419SOL     OW16255   0.202   0.966   4.246  0.0821  0.4199  0.3408
 5419SOL    HW116256   0.244   1.052   4.240 -0.4791  0.8346  1.7811
 5419SOL    HW216257   0.265   0.906   4.206 -0.1074  1.6412 -1.9632
 5420SOL     OW16258   5.115   1.084   4.130  0.2500 -0.0147  0.3503
 5420SOL    HW116259   5.149   1.173   4.118  2.0708 -0.6844  0.3199
 5420SOL    HW216260   5.110   1.049   4.041 -1.6661  0.4355  0.2351
 5421SOL     OW16261   4.312   3.667   2.368  0.0119  0.1800 -0.4621
 5421SOL    HW116262   4.336   3.749   2.324 -1.3828  0.6937 -0.3262
 5421SOL    HW216263   4.351   3.676   2.456  1.9643 -0.4233 -1.2226
 5422SOL     OW16264   3.563   0.920   0.612  0.1210 -0.3221  0.3361
 5422SOL    HW116265   3.558   0.826   0.594  0.4758 -0.2492 -0.1876
 5422SOL    HW216266   3.597   0.958   0.531 -0.4131  0.3115  0.3947
 5423SOL     OW16267   2.159   3.890   3.513  0.0051 -0.0184 -0.4137
 5423SOL    HW116268   2.137   3.883   3.420 -2.2025  4.2624 -0.4748
 5423SOL    HW216269   2.254   3.893   3.515  0.0920  0.8457 -2.7137
 5424SOL     OW16270   4.830   2.811   0.658 -0.6410 -0.2196 -0.2208
 5424SOL    HW116271   4.910   2.808   0.710 -0.3117  0.0503 -0.7125
 5424SOL    HW216272   4.784   2.730   0.681 -0.4033 -0.2011  0.3329
 5425SOL     OW16273   2.051   3.467   0.306  0.0321 -0.4525  0.0070
 5425SOL    HW116274   2.037   3.379   0.270  0.3266 -0.0387 -1.1720
 5425SOL    HW216275   1.987   3.475   0.376 -0.9448 -1.1073 -0.7819
 5426SOL     OW16276   3.434   0.632   3.960 -0.3271  0.0889  0.2587
 5426SOL    HW116277   3.342   0.641   3.984 -0.0560  2.1468  0.7498
 5426SOL    HW216278   3.481   0.684   4.025  0.8323  2.2725 -2.1114
 5427SOL     OW16279   5.150   0.786   2.183 -0.1708 -0.4869 -0.0539
 5427SOL    HW116280   5.226   0.803   2.127  0.5055 -0.2122  0.9249
 5427SOL    HW216281   5.104   0.715   2.139  0.5898 -0.5851 -0.7214
 5428SOL     OW16282   5.581   2.091   2.956 -0.7627 -0.3301  0.4022
 5428SOL    HW116283   5.500   2.046   2.980 -1.2274  0.5720  0.5274
 5428SOL    HW216284   5.600   2.149   3.030 -0.0131 -0.5046  0.3626
 5429SOL     OW16285   0.352   1.555   0.762 -0.3360 -0.4017 -0.6833
 5429SOL    HW116286   0.264   1.558   0.727 -0.9404 -0.8040  0.7185
 5429SOL    HW216287   0.399   1.494   0.705 -1.3419 -1.2171 -0.6592
 5430SOL     OW16288   5.306   3.167   4.470 -0.0008 -0.0772 -0.0209
 5430SOL    HW116289   5.211   3.161   4.465  0.0181  0.4287 -1.2821
 5430SOL    HW216290   5.324   3.172   4.564 -1.1617 -0.7917  0.2662
 5431SOL     OW16291   5.806   1.634   4.448  0.6779  0.2280 -0.1407
 5431SOL    HW116292   5.799   1.653   4.541  1.6853 -0.4835  0.0955
 5431SOL    HW216293   5.738   1.688   4.407 -0.5838 -0.3690  1.1068
 5432SOL     OW16294   0.763   4.892   4.089  0.4891 -0.4804  0.5926
 5432SOL    HW116295   0.774   4.855   4.002  1.0414 -0.1018  0.5001
 5432SOL    HW216296   0.715   4.825   4.137 -1.4080  0.0221 -0.4982
 5433SOL     OW16297   3.758   3.554   1.532  0.1575 -0.0601  0.4987
 5433SOL    HW116298   3.698   3.542   1.605 -1.5021  1.7609 -0.4733
 5433SOL    HW216299   3.845   3.551   1.572 -0.4280 -3.4427  1.8536
 5434SOL     OW16300   0.149   3.664   2.525 -0.0334 -0.9476 -0.3669
 5434SOL    HW116301   0.100   3.663   2.443 -0.8718  1.1203  0.0368
 5434SOL    HW216302   0.221   3.725   2.509 -0.5868  0.0012  0.5972
 5435SOL     OW16303   4.155   2.406   5.715 -0.0145 -0.0652  0.0481
 5435SOL    HW116304   4.136   2.316   5.689 -0.9745  0.2911 -0.5428
 5435SOL    HW216305   4.133   2.409   5.809  0.4589 -0.5608  0.1747
 5436SOL     OW16306   4.716   2.470   3.165  0.1376 -0.2843 -0.1422
 5436SOL    HW116307   4.793   2.527   3.163  0.5247 -0.4775  3.1366
 5436SOL    HW216308   4.645   2.525   3.131  1.1543  0.9277 -0.3855
 5437SOL     OW16309   4.182   2.804   3.204  0.2915 -0.1351  0.0448
 5437SOL    HW116310   4.183   2.760   3.119  1.2451 -0.6916  0.3167
 5437SOL    HW216311   4.194   2.897   3.184 -2.6213  0.1869 -0.5969
 5438SOL     OW16312   4.046   2.148   2.379  0.1725  0.2489  0.2259
 5438SOL    HW116313   4.109   2.082   2.405  0.0318  0.2483  0.5817
 5438SOL    HW216314   4.090   2.232   2.396  0.5522  0.2491 -0.7353
 5439SOL     OW16315   3.766   4.712   3.929  0.1639  0.5468 -0.0097
 5439SOL    HW116316   3.712   4.694   4.006  0.5771 -0.1785  0.1261
 5439SOL    HW216317   3.720   4.782   3.882 -1.2111 -0.4548 -0.2108
 5440SOL     OW16318   1.031   1.167   3.647 -0.0266 -0.3351 -0.2098
 5440SOL    HW116319   1.052   1.233   3.582  0.7832 -0.2825  0.1021
 5440SOL    HW216320   1.035   1.084   3.600 -1.7939 -0.1451 -0.7906
 5441SOL     OW16321   4.516   1.668   3.992  0.6564 -0.0497 -0.0178
 5441SOL    HW116322   4.485   1.743   3.942  0.9555 -0.5992 -1.0555
 5441SOL    HW216323   4.593   1.637   3.944  2.3254  0.7637  2.0139
 5442SOL     OW16324   5.433   1.662   4.107 -0.0300  0.7723  0.1669
 5442SOL    HW116325   5.489   1.586   4.117 -1.6572 -0.3608  0.9700
 5442SOL    HW216326   5.445   1.688   4.015 -0.8398 -1.5935 -0.6733
 5443SOL     OW16327   1.328   2.810   3.217 -0.0707  0.1303 -0.1668
 5443SOL    HW116328   1.412   2.856   3.213 -0.0966  0.1607 -0.3602
 5443SOL    HW216329   1.264   2.875   3.187 -0.2422  0.3030  0.5532
 5444SOL     OW16330   3.728   1.974   0.280  0.4233  0.4070 -0.2023
 5444SOL    HW116331   3.670   1.899   0.291 -0.0486  0.1947 -3.1448
 5444SOL    HW216332   3.678   2.036   0.227  1.4003  2.1258  0.7751
 5445SOL     OW16333   4.460   3.130   2.909  0.3807 -0.5259  0.2963
 5445SOL    HW116334   4.437   3.070   2.838  1.2346 -0.2194 -0.2514
 5445SOL    HW216335   4.397   3.202   2.900  0.0439 -0.8224  0.2808
 5446SOL     OW16336   3.351   0.246   5.419 -0.1132 -0.2593 -0.4613
 5446SOL    HW116337   3.441   0.221   5.441  0.5830  1.0999 -1.5651
 5446SOL    HW216338   3.313   0.275   5.502  0.4839 -0.7732  0.0041
 5447SOL     OW16339   5.615   1.906   0.770 -0.0697 -0.1270 -0.4053
 5447SOL    HW116340   5.680   1.882   0.836  1.5896 -2.0053 -2.5817
 5447SOL    HW216341   5.573   1.824   0.747 -0.3714  0.4224 -1.9085
 5448SOL     OW16342   3.054   3.678   3.464  0.3394  0.2812  0.3396
 5448SOL    HW116343   3.050   3.585   3.485 -0.7470  0.0855 -0.6110
 5448SOL    HW216344   3.060   3.681   3.368  0.9411  1.1862  0.3851
 5449SOL     OW16345   4.408   5.934   3.977 -0.0229  0.2840 -0.5507
 5449SOL    HW116346   4.486   5.882   3.957  1.3622  2.1216 -0.2416
 5449SOL    HW216347   4.367   5.889   4.051  1.0393 -0.4311 -0.3783
 5450SOL     OW16348   3.163   3.812   3.666 -0.5915  0.0383 -0.8266
 5450SOL    HW116349   3.139   3.760   3.590  0.3766 -0.6446 -0.6839
 5450SOL    HW216350   3.114   3.894   3.656 -2.6955 -1.1515 -0.6954
 5451SOL     OW16351   5.755   3.219   1.767 -0.3959 -0.2379  0.0466
 5451SOL    HW116352   5.712   3.209   1.681 -0.1637 -1.0994  0.0230
 5451SOL    HW216353   5.730   3.140   1.815  0.2050 -0.1832  0.4554
 5452SOL     OW16354   2.956   2.694   3.378 -0.7194  0.2330 -0.7072
 5452SOL    HW116355   2.940   2.788   3.371  0.5171  0.8194  2.3791
 5452SOL    HW216356   3.051   2.686   3.374 -0.7767 -0.7945 -0.2772
 5453SOL     OW16357   4.421   1.201   4.738 -0.7240  0.1349 -0.5168
 5453SOL    HW116358   4.428   1.208   4.643 -0.4997 -0.4916 -0.5529
 5453SOL    HW216359   4.511   1.209   4.769  0.0282 -4.6500 -0.7439
 5454SOL     OW16360   1.486   2.767   4.802 -0.1941  0.3546  0.3692
 5454SOL    HW116361   1.526   2.855   4.802  0.4386  0.0823 -0.1795
 5454SOL    HW216362   1.466   2.751   4.710 -2.4994  0.8690  0.7331
 5455SOL     OW16363   5.234   2.936   1.558  0.1148 -0.5414  0.0452
 5455SOL    HW116364   5.272   2.890   1.633  2.2662  1.8418  0.5394
 5455SOL    HW216365   5.306   2.945   1.496 -0.4837  1.2321 -0.4382
 5456SOL     OW16366   5.388   1.856   1.795  1.1646  0.8682  0.5385
 5456SOL    HW116367   5.468   1.805   1.788  1.0289  0.7876 -0.6247
 5456SOL    HW216368   5.318   1.796   1.769  1.1054  1.8859 -1.8566
 5457SOL     OW16369   4.517   3.339   0.754  0.2450  0.2745 -0.5543
 5457SOL    HW116370   4.602   3.329   0.795  0.0346 -0.7435 -0.3569
 5457SOL    HW216371   4.488   3.250   0.734 -1.3489  0.4931  0.5653
 5458SOL     OW16372   5.000   1.155   2.708  0.1096 -0.1998  0.1117
 5458SOL    HW116373   4.990   1.249   2.695  1.3444 -0.0277  0.3345
 5458SOL    HW216374   5.067   1.128   2.645 -1.2642 -1.2228 -0.9966
 5459SOL     OW16375   5.816   0.623   3.492  0.2975 -0.2001  0.6649
 5459SOL    HW116376   5.908   0.605   3.470 -0.0577  0.8649 -2.2171
 5459SOL    HW216377   5.772   0.539   3.477  0.4987 -0.1747 -0.1207
 5460SOL     OW16378   1.379   4.878   1.177  0.3896  0.1197  0.2745
 5460SOL    HW116379   1.302   4.934   1.190  0.7616  0.3437  1.7750
 5460SOL    HW216380   1.454   4.936   1.191  0.7926 -0.9427  3.3448
 5461SOL     OW16381   4.341   2.144   2.236 -0.8688  0.7142 -0.3834
 5461SOL    HW116382   4.347   2.151   2.331  1.8355 -0.8634 -0.3249
 5461SOL    HW216383   4.299   2.059   2.221  2.2480 -0.9802 -0.4091
 5462SOL     OW16384   0.893   1.548   1.852  0.2491 -0.2375 -0.6459
 5462SOL    HW116385   0.951   1.542   1.776  2.3635  0.0289  0.8582
 5462SOL    HW216386   0.894   1.641   1.876 -0.6271 -0.2708 -0.4365
 5463SOL     OW16387   4.639   3.560   3.779 -0.1222 -0.0156  0.3927
 5463SOL    HW116388   4.573   3.591   3.841  0.2591  1.4235  0.1313
 5463SOL    HW216389   4.718   3.610   3.801  0.0869  0.3661 -1.0723
 5464SOL     OW16390   2.983   4.634   2.654 -0.2938  0.3326 -0.1433
 5464SOL    HW116391   2.900   4.663   2.615 -1.4444 -1.1410  1.1167
 5464SOL    HW216392   3.041   4.622   2.579 -1.3773  0.8562 -1.1051
 5465SOL     OW16393   5.698   3.140   1.065 -0.3395  0.1703  0.0158
 5465SOL    HW116394   5.672   3.228   1.034 -0.1036 -0.1802 -1.2432
 5465SOL    HW216395   5.618   3.105   1.104 -0.2062  1.2711  1.3481
 5466SOL     OW16396   0.627   1.928   4.625  0.0484 -0.5093 -0.0469
 5466SOL    HW116397   0.673   1.938   4.542  0.3948  0.6580  0.2617
 5466SOL    HW216398   0.536   1.911   4.601 -0.3426  2.1793 -0.7147
 5467SOL     OW16399   2.186   2.908   0.080  0.1471 -0.3003  0.3859
 5467SOL    HW116400   2.193   2.995   0.121  1.4978 -0.3046  0.2350
 5467SOL    HW216401   2.094   2.899   0.056  0.2411  1.7540 -1.0070
 5468SOL     OW16402   4.820   1.675   3.572  0.1979  0.4549 -0.0128
 5468SOL    HW116403   4.902   1.627   3.568 -0.8818 -1.3974 -1.4363
 5468SOL    HW216404   4.826   1.738   3.500 -0.5524 -1.3720 -1.7672
 5469SOL     OW16405   0.137   3.173   2.268  0.5523  0.2930  0.2142
 5469SOL    HW116406   0.045   3.155   2.248  1.0837  0.1554 -2.3836
 5469SOL    HW216407   0.167   3.094   2.314 -0.9784  1.0083  2.6245
 5470SOL     OW16408   0.378   5.565   4.604 -0.9013  0.0900  0.4201
 5470SOL    HW116409   0.313   5.578   4.673  1.3714  0.2895  2.6967
 5470SOL    HW216410   0.410   5.653   4.584 -0.5676 -0.0968  0.1177
 5471SOL     OW16411   4.813   3.047   2.725 -0.0349  0.4415 -0.7470
 5471SOL    HW116412   4.876   2.977   2.707  1.1619  1.5050 -0.8710
 5471SOL    HW216413   4.763   3.057   2.645  1.9644  1.8519 -1.9148
 5472SOL     OW16414   4.635   1.885   2.203  0.1434 -0.0797 -0.1283
 5472SOL    HW116415   4.575   1.900   2.130 -1.2825  0.6445  1.1450
 5472SOL    HW216416   4.722   1.878   2.162 -0.7770 -1.1351 -2.0077
 5473SOL     OW16417   3.677   0.183   3.532  0.0810  0.0208  0.1666
 5473SOL    HW116418   3.726   0.182   3.614  0.8713 -0.9443 -0.2904
 5473SOL    HW216419   3.658   0.276   3.516 -0.2768  0.2032  1.5318
 5474SOL     OW16420   2.538   3.692   0.821 -0.0302  0.4125 -0.0293
 5474SOL    HW116421   2.631   3.671   0.812 -0.2359 -1.2787  1.3700
 5474SOL    HW216422   2.537   3.775   0.868  0.7955 -0.1213  0.9856
 5475SOL     OW16423   4.876   1.315   2.960 -0.2329 -0.1744  0.3376
 5475SOL    HW116424   4.962   1.278   2.985  0.5057  1.3013  0.0646
 5475SOL    HW216425   4.823   1.306   3.039  1.0208  1.3223  1.4120
 5476SOL     OW16426   2.424   3.818   3.452 -0.1879 -0.2030 -0.6716
 5476SOL    HW116427   2.512   3.783   3.436  0.2787  0.9310 -0.6792
 5476SOL    HW216428   2.367   3.741   3.450  0.8582 -1.0123 -0.2204
 5477SOL     OW16429   5.771   0.931   2.870  0.5998  0.1307  0.1764
 5477SOL    HW116430   5.746   0.848   2.829 -1.0648  1.3388 -1.4329
 5477SOL    HW216431   5.704   0.993   2.842  0.8135  1.6655  2.7500
 5478SOL     OW16432   3.592   0.798   3.623  0.1017  0.2687 -0.2444
 5478SOL    HW116433   3.509   0.832   3.589 -1.3288 -1.7584  1.0339
 5478SOL    HW216434   3.631   0.750   3.550 -1.2211 -1.0572 -0.1227
 5479SOL     OW16435   4.206   4.021   3.207  0.3592 -0.2474 -0.4381
 5479SOL    HW116436   4.224   3.941   3.255 -1.0661 -0.2161  0.1998
 5479SOL    HW216437   4.195   4.088   3.274  2.8716  0.8532 -0.9891
 5480SOL     OW16438   1.010   2.883   2.899  0.3596  0.2566  0.8761
 5480SOL    HW116439   0.997   2.827   2.822  1.7818  1.2049 -0.1226
 5480SOL    HW216440   0.927   2.928   2.910  0.4465  0.9151 -0.8348
 5481SOL     OW16441   3.939   3.972   3.115  0.2849  0.5506 -0.5033
 5481SOL    HW116442   3.895   4.022   3.183 -1.2423  1.3642 -2.0137
 5481SOL    HW216443   4.032   3.992   3.126 -0.0316  1.4032  0.7380
 5482SOL     OW16444   5.557   2.024   4.001 -0.9401 -0.0493  0.1837
 5482SOL    HW116445   5.468   1.991   4.007 -0.8087 -0.4743 -0.1202
 5482SOL    HW216446   5.610   1.947   3.979 -0.4622  0.1447  0.6209
 5483SOL     OW16447   1.318   4.583   5.743  0.5534  1.0516 -0.6863
 5483SOL    HW116448   1.250   4.590   5.810 -2.6442 -1.2795 -3.3331
 5483SOL    HW216449   1.373   4.511   5.771  0.9566  1.8559  0.6727
 5484SOL     OW16450   2.644   2.455   0.321 -0.6587  0.2550 -0.3005
 5484SOL    HW116451   2.657   2.405   0.401 -0.2160 -0.0580 -0.5614
 5484SOL    HW216452   2.603   2.536   0.350  0.3636  0.5600  0.3731
 5485SOL     OW16453   3.656   1.217   4.815  0.1740 -0.0480 -0.3091
 5485SOL    HW116454   3.637   1.124   4.803 -0.5003  0.1232 -0.5953
 5485SOL    HW216455   3.588   1.249   4.874 -0.8840  0.7084 -1.8667
 5486SOL     OW16456   5.812   2.158   2.500  0.0455  0.3222  0.0694
 5486SOL    HW116457   5.869   2.235   2.510  1.0736 -0.6513  2.4972
 5486SOL    HW216458   5.843   2.097   2.567  0.4062 -2.9680 -2.8556
 5487SOL     OW16459   3.841   0.539   5.592  0.0843 -0.2029 -0.0502
 5487SOL    HW116460   3.865   0.616   5.643  2.5639 -1.2686  0.5657
 5487SOL    HW216461   3.768   0.500   5.641  0.9551  0.0016  1.4716
 5488SOL     OW16462   3.118   3.005   4.953 -0.0804  0.6273  0.0624
 5488SOL    HW116463   3.100   3.085   5.003 -0.4008  1.6792 -1.6397
 5488SOL    HW216464   3.042   2.949   4.969 -0.8370  1.5147 -0.3031
 5489SOL     OW16465   5.869   1.697   2.722 -0.1378  0.5360  0.4215
 5489SOL    HW116466   5.907   1.612   2.699 -1.8375 -0.2089  0.2477
 5489SOL    HW216467   5.849   1.690   2.815 -1.2593  0.3473  0.1714
 5490SOL     OW16468   5.424   0.442   3.767 -0.2542 -0.1217 -0.0652
 5490SOL    HW116469   5.503   0.491   3.787 -0.0567 -0.5803  0.3039
 5490SOL    HW216470   5.404   0.394   3.847  0.1498 -1.4355 -0.7202
 5491SOL     OW16471   5.221   4.634   2.929 -0.4870  0.1012  0.1944
 5491SOL    HW116472   5.150   4.571   2.915 -1.8379  1.3298  1.1977
 5491SOL    HW216473   5.185   4.717   2.898  0.8693  0.6038 -0.1191
 5492SOL     OW16474   2.409   5.025   4.333 -0.1227 -0.1743  0.8332
 5492SOL    HW116475   2.338   4.965   4.357 -2.2583  1.7717 -0.2834
 5492SOL    HW216476   2.476   5.009   4.399 -0.9529 -3.0750  1.1526
 5493SOL     OW16477   1.432   1.554   5.305  0.3537 -0.1771  0.0380
 5493SOL    HW116478   1.343   1.569   5.338  0.2108 -0.1378 -0.3587
 5493SOL    HW216479   1.422   1.486   5.239  0.6133 -0.1451 -0.0358
 5494SOL     OW16480   0.602   4.664   3.682  0.0338  0.3034 -0.0746
 5494SOL    HW116481   0.650   4.641   3.602 -1.2020  1.5495 -1.2410
 5494SOL    HW216482   0.663   4.718   3.732  0.0134  1.6465 -1.4066
 5495SOL     OW16483   4.415   4.125   5.306 -0.7824 -0.4914  0.1116
 5495SOL    HW116484   4.352   4.168   5.249 -0.7953  0.0830  0.5609
 5495SOL    HW216485   4.495   4.121   5.253 -0.5729  0.7144  0.3081
 5496SOL     OW16486   5.329   2.206   3.291  0.3668  0.2363  0.1041
 5496SOL    HW116487   5.315   2.301   3.284  0.7872  0.3045  0.1511
 5496SOL    HW216488   5.347   2.191   3.384  0.6659  0.1630  0.0346
 5497SOL     OW16489   5.352   1.465   3.810 -0.0197  0.0408 -0.1747
 5497SOL    HW116490   5.380   1.409   3.738  1.9391  0.1461  0.4311
 5497SOL    HW216491   5.434   1.497   3.848 -1.0373  2.4687  0.1708
 5498SOL     OW16492   2.087   1.388   2.333  0.2387 -0.1564 -0.8036
 5498SOL    HW116493   2.077   1.329   2.258 -1.7103 -1.4307  0.3828
 5498SOL    HW216494   2.037   1.466   2.309 -0.1133 -0.4283 -0.9526
 5499SOL     OW16495   2.442   2.910   2.189  0.4436  0.2724  0.5533
 5499SOL    HW116496   2.409   2.847   2.125 -1.2374  0.0423  1.5643
 5499SOL    HW216497   2.436   2.995   2.146 -1.1631  0.1826  0.5522
 5500SOL     OW16498   2.565   0.447   3.962 -0.3543 -0.3677 -0.2808
 5500SOL    HW116499   2.601   0.511   3.901 -1.3780  0.2653 -0.2399
 5500SOL    HW216500   2.618   0.369   3.948  0.5913  0.3168 -0.6967
 5501SOL     OW16501   0.903   3.805   2.062  0.0259 -0.9544 -0.1729
 5501SOL    HW116502   0.859   3.734   2.109 -1.3844  0.3568  0.5619
 5501SOL    HW216503   0.840   3.877   2.062  1.9330  0.7973  0.3345
 5502SOL     OW16504   0.632   1.656   2.080  0.2206  0.2866  0.0694
 5502SOL    HW116505   0.537   1.649   2.066  0.2172 -1.0190  0.5556
 5502SOL    HW216506   0.641   1.725   2.146 -1.0961 -3.7987  5.3132
 5503SOL     OW16507   3.388   2.674   2.548 -0.0987  0.3164 -0.1128
 5503SOL    HW116508   3.349   2.751   2.507  0.0885  0.7435  0.5049
 5503SOL    HW216509   3.411   2.703   2.636 -0.9121 -0.7214  0.4548
 5504SOL     OW16510   3.787   2.409   1.478 -0.3005  0.3823 -0.6726
 5504SOL    HW116511   3.708   2.371   1.440 -1.0309  1.1263  0.0461
 5504SOL    HW216512   3.802   2.489   1.429 -0.5420  0.7194 -0.2079
 5505SOL     OW16513   5.732   2.938   3.595 -0.3000  0.4477 -0.6679
 5505SOL    HW116514   5.768   3.026   3.588 -1.3726  0.9260 -0.4589
 5505SOL    HW216515   5.681   2.939   3.676 -1.2905  0.0119 -1.2670
 5506SOL     OW16516   4.764   0.868   3.965  0.3053 -0.7411 -0.3553
 5506SOL    HW116517   4.763   0.905   4.053 -0.8356  0.3886 -0.8147
 5506SOL    HW216518   4.679   0.892   3.928  1.5617  0.6920 -2.5260
 5507SOL     OW16519   4.580   3.561   3.050  0.4622  0.2173  0.2152
 5507SOL    HW116520   4.641   3.634   3.062 -0.1732  0.3162  4.7031
 5507SOL    HW216521   4.625   3.485   3.086 -0.6800 -0.5011  0.1956
 5508SOL     OW16522   4.831   5.895   3.319  0.4299 -0.0857  0.0136
 5508SOL    HW116523   4.761   5.830   3.326 -0.6697  0.9861 -0.6942
 5508SOL    HW216524   4.872   5.894   3.406 -0.0496 -1.1628  0.2581
 5509SOL     OW16525   4.952   0.301   4.845 -0.2000 -0.1110 -0.5421
 5509SOL    HW116526   4.960   0.265   4.934  2.4726  1.9381  0.1494
 5509SOL    HW216527   4.996   0.237   4.789 -0.3598 -0.5619 -0.1624
 5510SOL     OW16528   3.608   3.747   0.995 -0.0427  0.8472  0.4549
 5510SOL    HW116529   3.691   3.701   1.004  0.1461  1.3784  1.5659
 5510SOL    HW216530   3.550   3.685   0.951  0.7700  0.2677  0.1939
 5511SOL     OW16531   3.443   4.198   1.173  0.6085 -0.2925  0.0233
 5511SOL    HW116532   3.481   4.134   1.112  1.0701 -0.9609  0.9944
 5511SOL    HW216533   3.352   4.168   1.184  1.4193 -2.2153  2.2583
 5512SOL     OW16534   5.908   0.280   3.458  0.2985 -0.0889 -0.5328
 5512SOL    HW116535   5.992   0.249   3.424  0.0598  1.0215 -2.2918
 5512SOL    HW216536   5.929   0.362   3.502  0.3471 -0.6627  0.5591
 5513SOL     OW16537   1.553   0.921   2.205  0.5069 -0.2143  0.2501
 5513SOL    HW116538   1.546   0.865   2.281 -1.0715 -1.5471 -0.8035
 5513SOL    HW216539   1.647   0.935   2.193  1.1014 -3.5818 -0.0606
 5514SOL     OW16540   2.317   0.626   1.955  0.2308  0.3095 -0.1711
 5514SOL    HW116541   2.304   0.708   1.907 -0.0871 -0.6112 -1.7136
 5514SOL    HW216542   2.243   0.622   2.015  0.3197  1.2019  0.0194
 5515SOL     OW16543   0.144   2.535   3.319 -0.2237  0.1892 -0.4056
 5515SOL    HW116544   0.145   2.455   3.266  0.1881 -0.7920  1.0148
 5515SOL    HW216545   0.237   2.557   3.331 -0.1628 -1.0359  1.9042
 5516SOL     OW16546   4.170   3.349   5.690 -0.1614 -0.3386  0.1615
 5516SOL    HW116547   4.230   3.307   5.627 -0.4272 -1.9513  0.9218
 5516SOL    HW216548   4.194   3.310   5.774 -0.4185  1.1186  0.9313
 5517SOL     OW16549   4.305   1.082   3.595 -0.4503 -0.0154 -0.5622
 5517SOL    HW116550   4.373   1.150   3.594 -0.2913 -0.1660 -0.1590
 5517SOL    HW216551   4.253   1.099   3.516 -0.6189  0.7831 -0.2857
 5518SOL     OW16552   3.619   4.021   0.054 -0.4787  0.2561  0.5727
 5518SOL    HW116553   3.573   4.104   0.040 -1.6876 -0.4586  0.2175
 5518SOL    HW216554   3.674   4.011  -0.023  0.9770  1.5169  1.3704
 5519SOL     OW16555   4.489   2.352   4.096  0.2393 -0.3315  0.0197
 5519SOL    HW116556   4.461   2.442   4.077  0.9145  0.0117  0.5905
 5519SOL    HW216557   4.518   2.354   4.187  0.3027 -1.1205  0.0248
 5520SOL     OW16558   2.212   3.248   3.761  0.1061 -0.4675  0.4190
 5520SOL    HW116559   2.214   3.340   3.789  1.5510 -0.6583  1.0236
 5520SOL    HW216560   2.304   3.223   3.752 -0.2505 -1.9733  0.6489
 5521SOL     OW16561   0.294   2.730   5.713  0.1113 -0.1138 -1.1580
 5521SOL    HW116562   0.282   2.822   5.736 -0.1126 -0.3975 -0.0970
 5521SOL    HW216563   0.256   2.681   5.786  0.9631 -1.0545 -1.3119
 5522SOL     OW16564   3.357   2.079   5.218  0.3524 -0.4186  0.1305
 5522SOL    HW116565   3.424   2.080   5.150 -0.8360  1.6361 -1.1274
 5522SOL    HW216566   3.274   2.070   5.170 -0.3699 -2.1804  1.5770
 5523SOL     OW16567   4.007   1.789   4.727 -0.2755 -0.6663  0.2125
 5523SOL    HW116568   4.028   1.708   4.773 -1.1159 -2.3531 -2.1749
 5523SOL    HW216569   3.953   1.761   4.652  0.2218  1.9779 -1.2554
 5524SOL     OW16570   2.902   2.805   5.100  0.4312  0.3023  0.1447
 5524SOL    HW116571   2.978   2.771   5.146  1.2193  1.8116  0.0148
 5524SOL    HW216572   2.827   2.763   5.143  1.2154  0.5304  1.8338
 5525SOL     OW16573   2.972   3.582   1.172  0.2203 -0.2169  0.9939
 5525SOL    HW116574   2.892   3.586   1.223  0.2149  0.6782  0.9232
 5525SOL    HW216575   3.030   3.525   1.223 -0.4409 -0.8444  1.0575
 5526SOL     OW16576   4.829   5.134   5.525 -0.2822 -0.3843  0.2736
 5526SOL    HW116577   4.794   5.186   5.453 -1.5779  0.0269  1.1570
 5526SOL    HW216578   4.872   5.198   5.582  1.3334 -0.7912 -0.4284
 5527SOL     OW16579   0.592   2.829   5.185 -0.0655  0.0000 -0.7684
 5527SOL    HW116580   0.523   2.860   5.243  0.3610  0.4994 -0.5198
 5527SOL    HW216581   0.660   2.896   5.190 -0.2403  0.3355 -2.2707
 5528SOL     OW16582   4.182   2.699   3.818 -0.2387  0.5854  0.3313
 5528SOL    HW116583   4.100   2.661   3.786 -0.5126  1.5161 -0.1144
 5528SOL    HW216584   4.157   2.743   3.899  0.3642 -1.3735  1.6527
 5529SOL     OW16585   2.737   4.600   0.095  0.0062  0.1735 -0.3177
 5529SOL    HW116586   2.643   4.587   0.108  0.1310  0.2418  0.6831
 5529SOL    HW216587   2.742   4.658   0.019 -0.7409 -0.3290 -0.7656
 5530SOL     OW16588   4.224   2.351   2.083 -0.1183 -0.1519 -0.0404
 5530SOL    HW116589   4.186   2.312   2.005  0.2466  0.8356 -0.7319
 5530SOL    HW216590   4.262   2.278   2.131  0.1774 -0.6934 -1.0888
 5531SOL     OW16591   1.466   4.361   2.806  0.4302 -0.5368 -0.0378
 5531SOL    HW116592   1.412   4.438   2.825 -0.5428 -0.7272 -1.8262
 5531SOL    HW216593   1.553   4.385   2.837 -0.5696 -0.1440  2.7577
 5532SOL     OW16594   4.398   2.473   4.811 -0.3508  0.2103 -0.4615
 5532SOL    HW116595   4.412   2.510   4.724 -0.2605 -0.0169 -0.5430
 5532SOL    HW216596   4.439   2.387   4.808 -0.4757  0.1411 -0.2410
 5533SOL     OW16597   5.784   1.652   4.721  0.6429 -0.2565  0.7467
 5533SOL    HW116598   5.861   1.696   4.756  0.5986  0.5064 -0.0794
 5533SOL    HW216599   5.793   1.561   4.750  1.7422 -0.1276  0.8485
 5534SOL     OW16600   0.366   4.495   0.696  0.4567  0.2588 -0.3527
 5534SOL    HW116601   0.446   4.521   0.649 -0.0564 -0.9932 -1.9893
 5534SOL    HW216602   0.311   4.573   0.694  0.9209  0.5864 -0.7743
 5535SOL     OW16603   4.442   0.864   1.346 -0.1398  0.8244  0.2199
 5535SOL    HW116604   4.374   0.926   1.320  0.3330  1.0494 -0.4971
 5535SOL    HW216605   4.480   0.901   1.426 -1.0944  0.5117  0.8394
 5536SOL     OW16606   4.514   2.639   0.204  0.7885 -0.1884  0.0375
 5536SOL    HW116607   4.551   2.694   0.273 -0.4278 -0.6654  1.1122
 5536SOL    HW216608   4.423   2.667   0.197  0.0445 -2.1688  0.8052
 5537SOL     OW16609   4.216   1.812   0.134 -0.1747  0.3711 -0.0558
 5537SOL    HW116610   4.206   1.800   0.039  1.1321  0.2261 -0.1919
 5537SOL    HW216611   4.309   1.826   0.147 -0.3537  0.5218  1.2105
 5538SOL     OW16612   4.363   2.174   4.343 -0.6521  0.1896  0.3691
 5538SOL    HW116613   4.356   2.160   4.249 -3.8936  0.5490  0.4639
 5538SOL    HW216614   4.398   2.091   4.377 -0.7988 -0.4539 -0.9920
 5539SOL     OW16615   3.420   0.567   5.236  0.5100  0.9109  0.3101
 5539SOL    HW116616   3.442   0.474   5.236  2.3188  1.2873  0.9044
 5539SOL    HW216617   3.326   0.570   5.248  0.6081 -0.8190  1.8863
 5540SOL     OW16618   0.457   1.221   1.801 -0.3160 -0.3490  0.4097
 5540SOL    HW116619   0.531   1.280   1.812 -0.0408 -0.9100  1.6085
 5540SOL    HW216620   0.493   1.144   1.757 -0.5205  0.0341 -0.4494
 5541SOL     OW16621   3.024   1.607   1.862 -0.1380  0.8583 -0.4226
 5541SOL    HW116622   3.098   1.664   1.839  0.6745 -1.0326 -2.8775
 5541SOL    HW216623   2.955   1.632   1.800 -0.2392  0.0925 -0.6237
 5542SOL     OW16624   5.653   2.266   0.752 -0.0362 -0.0509  0.1717
 5542SOL    HW116625   5.667   2.309   0.668  0.1943  0.3402  0.4051
 5542SOL    HW216626   5.740   2.237   0.779 -0.3911 -2.1596 -0.7556
 5543SOL     OW16627   5.282   2.795   3.416 -0.0871 -0.1176 -0.2649
 5543SOL    HW116628   5.313   2.776   3.505 -0.5622  0.2900 -0.0029
 5543SOL    HW216629   5.216   2.863   3.429  0.3023  0.4091 -0.9984
 5544SOL     OW16630   3.308   0.671   5.655  0.1209  0.2391 -0.5754
 5544SOL    HW116631   3.266   0.753   5.681  1.6054  0.9521 -0.3099
 5544SOL    HW216632   3.235   0.612   5.635 -1.0697  0.7814  1.7234
 5545SOL     OW16633   4.933   2.765   3.376  0.9852  0.7653  0.2770
 5545SOL    HW116634   4.985   2.837   3.411 -0.3766  2.2629 -0.6762
 5545SOL    HW216635   4.853   2.764   3.429  0.4113  0.8403 -0.5679
 5546SOL     OW16636   4.498   5.623   4.339 -0.2289 -0.0219 -0.3578
 5546SOL    HW116637   4.474   5.545   4.289 -0.7444  0.7241 -1.3108
 5546SOL    HW216638   4.558   5.670   4.281 -0.3911  0.5762 -0.0429
 5547SOL     OW16639   5.882   2.179   0.262 -0.0851  0.1227  0.2435
 5547SOL    HW116640   5.818   2.199   0.194  0.7551  1.5436 -0.1705
 5547SOL    HW216641   5.966   2.197   0.221  0.5778 -1.2380  0.9404
 5548SOL     OW16642   4.796   2.214   0.458 -0.2759 -0.9469 -0.1887
 5548SOL    HW116643   4.813   2.308   0.457 -0.7471 -0.7915  1.8486
 5548SOL    HW216644   4.832   2.182   0.375  2.2268  0.6136  0.2038
 5549SOL     OW16645   0.286   4.611   2.733 -0.0941 -1.2238 -0.5761
 5549SOL    HW116646   0.230   4.538   2.758 -0.1194 -1.5207 -1.4869
 5549SOL    HW216647   0.254   4.638   2.647 -1.0620  0.8244  0.3418
 5550SOL     OW16648   3.154   5.256   3.130  0.6432  0.1485 -0.4854
 5550SOL    HW116649   3.164   5.343   3.167  1.3890  0.3245 -1.0714
 5550SOL    HW216650   3.179   5.266   3.038 -0.1780 -0.4889 -0.7930
 5551SOL     OW16651   4.682   2.941   1.726 -0.2317  0.2514  0.4835
 5551SOL    HW116652   4.713   2.920   1.814 -0.3040 -0.0360  0.4406
 5551SOL    HW216653   4.590   2.916   1.726 -1.3935  3.9154  1.5941
 5552SOL     OW16654   0.298   4.118   0.160 -0.2306  0.0663 -0.0253
 5552SOL    HW116655   0.343   4.140   0.241  1.3637 -1.8537 -0.3229
 5552SOL    HW216656   0.339   4.174   0.094 -0.3183  0.3880  0.1914
 5553SOL     OW16657   5.189   3.489   5.949  0.3561  0.1553  0.0328
 5553SOL    HW116658   5.228   3.413   5.906  1.1734  0.5286  0.1034
 5553SOL    HW216659   5.259   3.524   6.004  0.0743  1.1170 -0.2035
 5554SOL     OW16660   4.326   4.189   3.902 -0.4741 -0.5718 -0.0595
 5554SOL    HW116661   4.318   4.138   3.983 -0.6591 -0.6034 -0.0969
 5554SOL    HW216662   4.414   4.172   3.871 -0.7182 -1.3019 -0.3629
 5555SOL     OW16663   1.564   2.320   3.225 -0.3553  0.8998 -0.4567
 5555SOL    HW116664   1.550   2.328   3.130  0.1616  0.1629 -0.6092
 5555SOL    HW216665   1.589   2.228   3.237  1.3300  1.3912  0.1603
 5556SOL     OW16666   3.017   3.411   3.435 -0.3461  0.9044  0.1585
 5556SOL    HW116667   3.103   3.370   3.427  0.0351  1.9281 -1.4020
 5556SOL    HW216668   2.970   3.356   3.499  0.0348 -2.1289 -1.9511
 5557SOL     OW16669   3.047   2.665   0.300  0.0252  0.5693  0.4853
 5557SOL    HW116670   3.071   2.580   0.264  1.8301  0.9214  0.7734
 5557SOL    HW216671   3.016   2.715   0.224  1.9916  0.6832 -0.2920
 5558SOL     OW16672   4.516   3.043   5.677  0.7072 -0.6744  0.1638
 5558SOL    HW116673   4.607   3.063   5.656  0.3848 -0.2084 -0.7924
 5558SOL    HW216674   4.464   3.097   5.618 -0.1997 -0.9039  0.7267
 5559SOL     OW16675   5.756   1.835   3.941 -0.1082  0.3033  0.1068
 5559SOL    HW116676   5.832   1.855   3.996 -1.0640  1.2016  1.1364
 5559SOL    HW216677   5.781   1.864   3.854  1.6873 -1.7308 -0.1379
 5560SOL     OW16678   2.072   2.715   1.472  0.2844  0.5942 -0.5788
 5560SOL    HW116679   1.985   2.756   1.470  0.4203  0.8452 -1.5192
 5560SOL    HW216680   2.127   2.780   1.516 -0.1956  0.0070  0.9852
 5561SOL     OW16681   4.000   0.771   5.387 -0.1147 -0.2214  0.3074
 5561SOL    HW116682   3.952   0.737   5.463  0.1860  0.4094  0.7864
 5561SOL    HW216683   3.936   0.770   5.316 -0.4944 -0.5056  0.6470
 5562SOL     OW16684   4.715   3.475   2.062 -0.1971  0.3667 -0.3093
 5562SOL    HW116685   4.657   3.548   2.040  1.7559  2.0426 -0.3327
 5562SOL    HW216686   4.757   3.502   2.144  0.3636 -0.8578 -0.1750
 5563SOL     OW16687   5.385   0.070   3.276 -0.0948 -0.2550  0.1057
 5563SOL    HW116688   5.403   0.129   3.350 -2.0899 -0.0974  0.5370
 5563SOL    HW216689   5.330   0.001   3.314 -0.1257 -0.8448 -0.9837
 5564SOL     OW16690   1.498   1.242   5.288  0.3882  0.1757 -0.1869
 5564SOL    HW116691   1.404   1.227   5.277  0.7018 -1.0206 -1.4304
 5564SOL    HW216692   1.531   1.162   5.329  0.9498  0.3712 -0.2446
 5565SOL     OW16693   1.173   2.116   5.142 -0.3398 -0.2554  0.0588
 5565SOL    HW116694   1.129   2.130   5.058 -1.7729 -0.8092  0.6766
 5565SOL    HW216695   1.254   2.166   5.136 -0.5402 -0.0781 -1.5521
 5566SOL     OW16696   3.323   4.055   0.785 -0.5077 -0.0997  0.1293
 5566SOL    HW116697   3.324   4.150   0.773  0.5888  0.0505  1.2143
 5566SOL    HW216698   3.399   4.024   0.735  1.6182  0.0897  3.0156
 5567SOL     OW16699   0.424   2.009   4.417  0.1856 -0.4372 -0.0352
 5567SOL    HW116700   0.488   2.079   4.429 -2.2122  1.5180  3.4241
 5567SOL    HW216701   0.399   2.014   4.325  3.4725 -0.0449 -1.0383
 5568SOL     OW16702   5.258   0.214   5.958  0.2831  0.1436  0.6898
 5568SOL    HW116703   5.352   0.232   5.949  0.4721 -0.6270  1.0455
 5568SOL    HW216704   5.254   0.132   6.007 -0.6340  1.3705  2.7624
 5569SOL     OW16705   2.765   2.331   0.104  0.5144  0.0882 -0.5225
 5569SOL    HW116706   2.744   2.395   0.172  1.7452 -0.0585  0.0423
 5569SOL    HW216707   2.766   2.381   0.023 -1.2785  0.2057 -0.4940
 5570SOL     OW16708   1.283   2.843   5.557 -0.1475  0.2298  0.0476
 5570SOL    HW116709   1.200   2.890   5.568 -1.0250 -1.3240  0.3320
 5570SOL    HW216710   1.258   2.755   5.528  1.3668 -0.4653  0.6981
 5571SOL     OW16711   5.686   2.290   0.113  0.4463 -0.3172  0.4238
 5571SOL    HW116712   5.639   2.368   0.141 -2.0244 -1.1554 -1.1013
 5571SOL    HW216713   5.674   2.287   0.018 -0.7826 -3.2623  0.5661
 5572SOL     OW16714   4.226   2.775   1.194 -0.2134 -0.0636  0.1289
 5572SOL    HW116715   4.136   2.782   1.163 -0.4119 -1.5479  0.2894
 5572SOL    HW216716   4.265   2.706   1.140  0.1765 -0.9168  1.4271
 5573SOL     OW16717   2.847   0.151   5.069  0.2185  0.4403  0.0617
 5573SOL    HW116718   2.926   0.201   5.090  0.4689  1.0750 -2.1306
 5573SOL    HW216719   2.792   0.212   5.020 -0.3633 -0.8048 -0.9140
 5574SOL     OW16720   5.130   4.879   2.840  0.7422 -0.0951  0.0849
 5574SOL    HW116721   5.052   4.909   2.888  1.1582 -1.7956  1.9490
 5574SOL    HW216722   5.164   4.958   2.798 -1.8055  0.7531 -0.5476
 5575SOL     OW16723   5.432   0.214   5.679  0.0532  0.2889 -0.0132
 5575SOL    HW116724   5.380   0.287   5.643 -1.9610 -0.0769  1.9353
 5575SOL    HW216725   5.456   0.244   5.767  0.8916 -0.6292  0.0774
 5576SOL     OW16726   1.657   4.580   4.823 -0.3927 -0.0703 -0.4127
 5576SOL    HW116727   1.651   4.674   4.808 -0.7767  0.1060  0.7790
 5576SOL    HW216728   1.674   4.571   4.916 -2.5363 -1.2321 -0.0733
 5577SOL     OW16729   2.721   3.895   4.505 -0.0891  0.2231  0.8847
 5577SOL    HW116730   2.673   3.939   4.435  1.6943  0.7251 -0.1087
 5577SOL    HW216731   2.725   3.958   4.576 -1.8251 -0.2484  1.4440
 5578SOL     OW16732   2.904   5.630   5.662  0.1182 -0.7757  0.0991
 5578SOL    HW116733   2.981   5.666   5.617 -1.5119  2.7169 -0.2532
 5578SOL    HW216734   2.927   5.635   5.755  0.6563 -0.6668 -0.0318
 5579SOL     OW16735   4.054   0.112   0.515 -0.5046  0.1711 -0.0699
 5579SOL    HW116736   4.037   0.042   0.452  2.2007 -0.1801 -0.5364
 5579SOL    HW216737   4.016   0.190   0.474  0.2874 -0.2434 -1.7040
 5580SOL     OW16738   1.729   3.922   1.777  0.3810  0.6732  0.2876
 5580SOL    HW116739   1.799   3.857   1.774  0.8106  1.1378  0.2114
 5580SOL    HW216740   1.649   3.870   1.784  0.5175  0.0013 -2.1663
 5581SOL     OW16741   5.702   3.175   3.757  0.5991 -0.1915 -0.2005
 5581SOL    HW116742   5.789   3.213   3.745 -0.3877  1.6406 -2.3642
 5581SOL    HW216743   5.643   3.250   3.761 -1.2372 -1.3250 -2.7681
 5582SOL     OW16744   5.955   2.346   1.082  0.0250 -0.0539 -0.1353
 5582SOL    HW116745   5.992   2.363   0.995  0.2157  1.9124  0.2713
 5582SOL    HW216746   6.021   2.292   1.126  0.6679  0.2663 -0.6879
 5583SOL     OW16747   5.466   3.753   0.497 -0.2553 -0.4103 -0.0978
 5583SOL    HW116748   5.469   3.846   0.478  0.9896 -0.6223 -1.0804
 5583SOL    HW216749   5.379   3.739   0.536 -2.0418  0.5504 -3.3457
 5584SOL     OW16750   2.651   3.840   5.198  0.0407 -0.6627 -0.1093
 5584SOL    HW116751   2.655   3.760   5.250 -1.1483  0.1016  1.2292
 5584SOL    HW216752   2.560   3.847   5.172  0.5587 -0.8745 -2.1214
 5585SOL     OW16753   5.537   3.246   5.601  0.3852  0.1310 -0.1125
 5585SOL    HW116754   5.547   3.234   5.696  0.4153  1.4605  0.0629
 5585SOL    HW216755   5.463   3.306   5.592  1.3543  1.2346 -0.8591
 5586SOL     OW16756   4.658   2.368   4.315  0.1394 -0.9229  0.3763
 5586SOL    HW116757   4.716   2.304   4.272  2.5930  0.0412  2.0217
 5586SOL    HW216758   4.691   2.372   4.405  0.0592  2.5879  0.3575
 5587SOL     OW16759   1.280   3.594   5.509  0.4255 -0.0488  0.0945
 5587SOL    HW116760   1.264   3.576   5.602 -0.0944 -2.2994 -0.3863
 5587SOL    HW216761   1.375   3.607   5.504  0.2011  2.6446  1.2802
 5588SOL     OW16762   5.116   3.620   3.611 -0.4253 -0.5600  0.3781
 5588SOL    HW116763   5.092   3.528   3.607 -0.0630 -0.6659 -4.1956
 5588SOL    HW216764   5.035   3.667   3.591  0.0814 -0.1643 -0.8817
 5589SOL     OW16765   5.137   2.272   4.701 -0.1917 -0.2815  0.0164
 5589SOL    HW116766   5.215   2.294   4.651  0.1747  0.3161  0.8298
 5589SOL    HW216767   5.154   2.185   4.735 -1.3758 -1.6852 -2.6832
 5590SOL     OW16768   5.574   0.016   0.803  0.7264  0.0458 -0.5317
 5590SOL    HW116769   5.655   0.059   0.831  1.9230 -0.8619 -2.3888
 5590SOL    HW216770   5.603  -0.050   0.740 -1.5075  0.0206 -1.6254
 5591SOL     OW16771   0.764   1.923   3.009 -0.0225 -0.3362 -0.2856
 5591SOL    HW116772   0.796   1.867   3.080 -3.0254 -1.0779  0.6437
 5591SOL    HW216773   0.690   1.970   3.047 -0.6048  0.6335 -2.4430
 5592SOL     OW16774   0.802   0.192   4.502 -0.0046 -1.5900  0.2261
 5592SOL    HW116775   0.845   0.196   4.416  0.1816 -2.7858  0.2397
 5592SOL    HW216776   0.750   0.272   4.507 -0.2834 -1.6680 -1.1429
 5593SOL     OW16777   4.578   2.193   0.638 -0.0179  0.2909 -0.0769
 5593SOL    HW116778   4.501   2.203   0.581  0.3227 -1.0792 -0.8121
 5593SOL    HW216779   4.651   2.181   0.578  0.3621 -1.1175  0.6335
 5594SOL     OW16780   3.884   3.586   0.554 -0.0640  0.1499  0.2327
 5594SOL    HW116781   3.961   3.642   0.567  0.1238  0.3309 -1.3894
 5594SOL    HW216782   3.866   3.592   0.460  0.1133 -2.7125 -0.0800
 5595SOL     OW16783   4.760   2.006   5.684  0.1994 -0.0189  0.1186
 5595SOL    HW116784   4.672   2.006   5.648  0.3764 -2.0043 -0.4148
 5595SOL    HW216785   4.818   1.999   5.607  0.6408 -2.5341  0.5915
 5596SOL     OW16786   4.179   5.347   0.547  0.0851  0.0980 -0.5431
 5596SOL    HW116787   4.098   5.348   0.496  0.4825 -1.9493 -1.2833
 5596SOL    HW216788   4.151   5.322   0.635  0.0042 -1.9776 -1.1071
 5597SOL     OW16789   5.001   2.520   1.108  0.0234  0.3489  0.5120
 5597SOL    HW116790   4.961   2.455   1.167 -1.5277  0.8135  0.0313
 5597SOL    HW216791   4.929   2.579   1.085  1.0331  1.3042 -0.3402
 5598SOL     OW16792   4.637   0.302   4.536  0.5008  0.4715 -0.4133
 5598SOL    HW116793   4.572   0.367   4.509  1.2455  0.8711 -1.2917
 5598SOL    HW216794   4.667   0.332   4.622 -1.3425 -0.3927  0.5799
 5599SOL     OW16795   4.229   2.254   0.176 -0.6444  0.0265  0.4044
 5599SOL    HW116796   4.278   2.280   0.255  0.4140  0.1989 -0.2867
 5599SOL    HW216797   4.179   2.178   0.203 -0.7741  0.4497  1.4165
 5600SOL     OW16798   2.475   5.163   0.372  0.3446  0.0506 -0.4638
 5600SOL    HW116799   2.531   5.096   0.334 -0.2418  0.0528 -1.3622
 5600SOL    HW216800   2.454   5.131   0.460 -0.6324 -1.3729 -1.1896
 5601SOL     OW16801   4.452   3.902   0.544 -0.3338  0.1484 -0.5001
 5601SOL    HW116802   4.382   3.933   0.486  0.5644  2.7805 -0.3052
 5601SOL    HW216803   4.428   3.932   0.631  0.7347  0.5836 -0.3330
 5602SOL     OW16804   4.553   1.871   4.619  0.2090  0.1313 -0.1910
 5602SOL    HW116805   4.646   1.868   4.643 -0.4572 -2.9527  2.9419
 5602SOL    HW216806   4.513   1.926   4.686 -0.2823  1.6201 -1.6457
 5603SOL     OW16807   5.191   3.679   5.592 -0.2240  0.1936  0.2041
 5603SOL    HW116808   5.198   3.673   5.688 -1.9824 -2.1166  0.2689
 5603SOL    HW216809   5.282   3.676   5.562  0.2983 -0.9611  1.7550
 5604SOL     OW16810   5.503   1.609   4.920 -0.0031  0.0868 -0.0514
 5604SOL    HW116811   5.542   1.619   4.833  0.1746  0.2481  0.0484
 5604SOL    HW216812   5.469   1.519   4.920  1.3254 -0.4365  0.2590
 5605SOL     OW16813   5.510   0.133   4.310  0.6205 -0.5535  0.2934
 5605SOL    HW116814   5.505   0.220   4.351  0.7634 -0.3877 -0.0385
 5605SOL    HW216815   5.426   0.122   4.266  0.7651 -0.3989 -0.0269
 5606SOL     OW16816   5.874   1.495   4.246  0.4281  0.3202 -0.3037
 5606SOL    HW116817   5.855   1.566   4.307  0.9561  0.8816 -0.7730
 5606SOL    HW216818   5.965   1.473   4.263 -0.1089 -1.1893  0.7728
 5607SOL     OW16819   5.878   2.601   3.981 -0.0619  0.1229  0.8377
 5607SOL    HW116820   5.827   2.552   4.045 -2.4689  0.1770 -0.9032
 5607SOL    HW216821   5.857   2.561   3.897  2.4425  0.5030 -0.0682
 5608SOL     OW16822   5.132   4.641   2.341  0.1705 -0.5964  0.2911
 5608SOL    HW116823   5.103   4.554   2.314  0.2917 -0.7616  0.6882
 5608SOL    HW216824   5.112   4.698   2.266  3.0105 -1.5234 -1.3350
 5609SOL     OW16825   4.123   1.397   3.698  0.1294 -0.2332 -0.7283
 5609SOL    HW116826   4.162   1.354   3.773 -0.3888  0.9059  0.2287
 5609SOL    HW216827   4.197   1.434   3.650  0.4780 -1.1374 -0.9011
 5610SOL     OW16828   5.228   3.520   2.779 -0.4849 -0.0589  0.4413
 5610SOL    HW116829   5.296   3.558   2.723 -0.7594  2.5371  1.7129
 5610SOL    HW216830   5.165   3.483   2.717  0.8162 -0.2034 -0.8455
 5611SOL     OW16831   0.749   5.848   5.059  0.1100 -0.2200 -0.3108
 5611SOL    HW116832   0.733   5.760   5.027  0.8501 -1.4678  2.4597
 5611SOL    HW216833   0.842   5.850   5.081  0.4163  1.7168 -1.5148
 5612SOL     OW16834   1.929   3.201   0.346 -0.3153 -0.4463  0.0334
 5612SOL    HW116835   1.865   3.133   0.324  0.1038 -1.2537  1.2469
 5612SOL    HW216836   1.917   3.216   0.439  1.6216 -1.0118  0.4155
 5613SOL     OW16837   0.590   2.424   3.651  0.6852 -0.3744 -0.5141
 5613SOL    HW116838   0.674   2.388   3.624  0.3718 -1.5095 -0.0214
 5613SOL    HW216839   0.609   2.515   3.675  2.0009 -0.9530  0.7524
 5614SOL     OW16840   5.368   1.196   3.974 -0.0654  0.1307 -0.1269
 5614SOL    HW116841   5.376   1.234   3.886 -1.9726  0.2527 -0.2874
 5614SOL    HW216842   5.317   1.260   4.023 -2.0950 -1.5067  0.0243
 5615SOL     OW16843   2.110   3.788   0.476 -0.1015  0.0804  0.3098
 5615SOL    HW116844   2.027   3.798   0.523 -0.3784  1.2175 -0.3861
 5615SOL    HW216845   2.171   3.755   0.543 -0.4747  1.6847  1.5164
 5616SOL     OW16846   4.789   2.900   2.001  0.1435  0.4479 -0.9776
 5616SOL    HW116847   4.769   2.991   2.026  0.1938 -0.1354  1.4796
 5616SOL    HW216848   4.879   2.903   1.970  1.3969  0.8425  2.2598
 5617SOL     OW16849   1.948   3.198   4.537 -0.1408 -0.1004  0.2342
 5617SOL    HW116850   1.906   3.228   4.456  2.6519  2.7224 -0.4106
 5617SOL    HW216851   1.886   3.222   4.606 -0.2698  2.8171 -0.7334
 5618SOL     OW16852   4.932   4.607   2.555 -0.2127 -0.0177 -0.0074
 5618SOL    HW116853   5.015   4.582   2.513  0.4191  3.7289 -1.3260
 5618SOL    HW216854   4.943   4.583   2.647  1.9288 -0.5002 -0.3450
 5619SOL     OW16855   1.050   2.434   4.650  0.2715  0.1812 -0.0674
 5619SOL    HW116856   1.003   2.358   4.684  0.7042  0.0789  0.3149
 5619SOL    HW216857   1.000   2.509   4.683  0.2838  0.0703  0.2106
 5620SOL     OW16858   4.474   4.218   2.953 -0.4719 -0.1132 -0.1620
 5620SOL    HW116859   4.439   4.130   2.962 -3.8743  0.9995 -1.2702
 5620SOL    HW216860   4.478   4.251   3.043 -0.2399 -1.0008  0.1607
 5621SOL     OW16861   5.449   4.604   5.299 -0.4727 -0.0549 -0.1393
 5621SOL    HW116862   5.388   4.554   5.353  2.5735 -2.9210  0.9412
 5621SOL    HW216863   5.449   4.558   5.215 -0.4587  0.5048 -0.4520
 5622SOL     OW16864   2.841   0.789   4.611  0.5171 -0.3945  0.3093
 5622SOL    HW116865   2.823   0.869   4.562 -0.0022 -1.0185 -0.5408
 5622SOL    HW216866   2.937   0.781   4.609  0.6139  0.4834  0.8772
 5623SOL     OW16867   0.328   3.916   3.340  0.1227 -0.0416  0.2338
 5623SOL    HW116868   0.360   3.899   3.429 -0.7271 -3.4421  0.0474
 5623SOL    HW216869   0.235   3.894   3.343 -0.0694  0.4465 -1.3392
 5624SOL     OW16870   5.482   1.652   0.695  0.4040  0.3923 -0.0761
 5624SOL    HW116871   5.441   1.566   0.691 -0.1080  0.5453  1.2686
 5624SOL    HW216872   5.430   1.706   0.635 -0.8115  0.3443  0.8959
 5625SOL     OW16873   4.681   0.229   5.717  0.0394  0.0197  0.2347
 5625SOL    HW116874   4.666   0.315   5.678  0.8706 -0.6493 -1.6915
 5625SOL    HW216875   4.755   0.242   5.777 -0.7621  0.9075  1.0657
 5626SOL     OW16876   1.934   2.443   3.437 -0.0616 -0.2324  0.1678
 5626SOL    HW116877   1.877   2.370   3.462  2.9959 -2.2919  1.8156
 5626SOL    HW216878   1.954   2.487   3.519  0.9978  0.1636 -0.2750
 5627SOL     OW16879   3.894   1.177   5.367  0.2327  0.3497 -0.0709
 5627SOL    HW116880   3.829   1.247   5.368  1.5248  1.6118 -0.1855
 5627SOL    HW216881   3.910   1.161   5.274 -1.9502 -2.0104 -0.1348
 5628SOL     OW16882   3.487   2.757   0.513 -0.5321 -0.0444  0.1175
 5628SOL    HW116883   3.411   2.808   0.543  0.5341  0.5413  1.9703
 5628SOL    HW216884   3.450   2.696   0.449 -2.2528  1.4282 -0.3915
 5629SOL     OW16885   4.100   1.594   1.598 -0.2255  0.1592  0.2611
 5629SOL    HW116886   4.183   1.577   1.554 -2.2207 -0.0590 -3.8934
 5629SOL    HW216887   4.087   1.518   1.655  1.3732 -0.8888 -0.7118
 5630SOL     OW16888   4.102   3.541   4.315  0.5281 -0.2387  0.0689
 5630SOL    HW116889   4.083   3.529   4.222  0.9226  0.4617 -0.1051
 5630SOL    HW216890   4.190   3.578   4.318 -1.0670  4.1372  0.4162
 5631SOL     OW16891   5.975   2.389   5.697  0.4128  0.0776  0.0843
 5631SOL    HW116892   6.013   2.463   5.651  1.3489 -1.4250 -1.6881
 5631SOL    HW216893   5.910   2.353   5.636  0.7282 -1.1764  0.4595
 5632SOL     OW16894   4.649   3.324   0.190  0.4326  0.0687  0.1499
 5632SOL    HW116895   4.684   3.337   0.278 -1.9212  1.2542  0.9808
 5632SOL    HW216896   4.694   3.245   0.158  1.1198 -0.5742  2.5107
 5633SOL     OW16897   4.874   5.577   4.760 -0.0809 -0.5386 -0.4733
 5633SOL    HW116898   4.815   5.601   4.689  0.8578  1.0700 -0.7561
 5633SOL    HW216899   4.886   5.483   4.751 -0.8736 -0.5381 -1.7469
 5634SOL     OW16900   4.079   3.018   1.585  0.0417 -0.2963 -0.2350
 5634SOL    HW116901   4.007   3.074   1.557 -0.3050 -0.1347  0.9104
 5634SOL    HW216902   4.157   3.072   1.573  0.0634 -0.6512 -1.9587
 5635SOL     OW16903   0.035   4.518   3.811 -0.1598  0.1868  0.3695
 5635SOL    HW116904   0.070   4.501   3.724 -0.7253  0.4207  0.0931
 5635SOL    HW216905   0.095   4.472   3.870  0.9358  1.0372 -0.0449
 5636SOL     OW16906   2.246   2.395   3.698 -0.3114 -0.1899 -0.0442
 5636SOL    HW116907   2.253   2.388   3.602  2.0402 -2.8940  0.1806
 5636SOL    HW216908   2.167   2.345   3.719  0.7393 -2.1626 -0.4858
 5637SOL     OW16909   0.126   4.939   3.740 -0.1066 -0.6165  0.6144
 5637SOL    HW116910   0.216   4.916   3.718 -1.4995 -4.0772 -2.5363
 5637SOL    HW216911   0.098   4.995   3.668 -0.8248 -0.5150  0.9635
 5638SOL     OW16912   3.000   1.946   4.663  0.3144 -0.2082  0.6600
 5638SOL    HW116913   2.966   2.035   4.650  0.5436 -0.3701 -1.3631
 5638SOL    HW216914   3.050   1.928   4.583  1.9506 -1.4265  1.8944
 5639SOL     OW16915   5.310   1.027   5.873 -0.0785  0.1891 -0.6406
 5639SOL    HW116916   5.308   1.018   5.778 -1.9537  2.2071 -0.8590
 5639SOL    HW216917   5.220   1.008   5.901 -0.0786  1.6452  0.4672
 5640SOL     OW16918   0.171   1.784   4.026 -0.0091 -0.1875 -0.2646
 5640SOL    HW116919   0.181   1.746   3.939 -0.1683 -0.7236 -0.0515
 5640SOL    HW216920   0.208   1.719   4.085  1.5574  0.8480 -0.0388
 5641SOL     OW16921   2.349   3.708   0.625 -0.5696  0.0864  0.2111
 5641SOL    HW116922   2.328   3.616   0.609 -0.3504 -0.0299  0.5973
 5641SOL    HW216923   2.414   3.707   0.695  2.7680  0.2477 -2.6016
 5642SOL     OW16924   3.433   0.437   1.200 -0.2784 -0.5169 -0.4652
 5642SOL    HW116925   3.457   0.524   1.169  0.6725 -0.5810  0.0410
 5642SOL    HW216926   3.338   0.440   1.211 -0.3419  0.2196 -1.1506
 5643SOL     OW16927   5.305   3.592   0.642  0.1586 -0.3570  0.3703
 5643SOL    HW116928   5.224   3.642   0.634  0.1859 -0.3122  0.3721
 5643SOL    HW216929   5.306   3.536   0.565  1.0373  0.9703 -0.6287
 5644SOL     OW16930   4.038   3.952   2.570 -0.0337 -0.3126 -0.1634
 5644SOL    HW116931   4.073   3.865   2.551  0.7632  0.3092 -1.7243
 5644SOL    HW216932   4.089   3.983   2.645  0.7639 -0.5851 -0.5864
 5645SOL     OW16933   5.633   0.700   0.901  0.3831 -0.4111 -0.2663
 5645SOL    HW116934   5.554   0.724   0.852  0.6751  2.5176  0.4895
 5645SOL    HW216935   5.686   0.650   0.839 -1.7189 -1.8310 -1.0116
 5646SOL     OW16936   0.863   2.871   4.252  0.4063 -0.1132  0.2240
 5646SOL    HW116937   0.845   2.964   4.244  1.8200  0.1450 -0.2783
 5646SOL    HW216938   0.845   2.851   4.344  0.2210  0.6862  0.3684
 5647SOL     OW16939   3.526   5.406   4.620 -0.2691  0.1318  0.2915
 5647SOL    HW116940   3.607   5.359   4.603  0.1664  1.6547 -2.4566
 5647SOL    HW216941   3.553   5.498   4.628 -1.4528  0.3666  2.1643
 5648SOL     OW16942   3.251   0.489   0.432 -0.6432 -0.0128 -0.1418
 5648SOL    HW116943   3.175   0.474   0.376  0.1993 -1.4310 -0.9444
 5648SOL    HW216944   3.233   0.573   0.474 -1.9027  0.4667 -1.5544
 5649SOL     OW16945   4.334   1.023   0.571  0.1608 -0.7084 -0.4830
 5649SOL    HW116946   4.340   0.977   0.655 -0.0568 -0.3342 -0.2532
 5649SOL    HW216947   4.398   1.095   0.579 -0.5476 -0.0890 -0.2473
 5650SOL     OW16948   4.874   3.250   1.092 -0.4526 -0.0123 -0.0799
 5650SOL    HW116949   4.938   3.221   1.157 -0.9861  0.9263  0.8849
 5650SOL    HW216950   4.811   3.303   1.141 -1.9990 -0.9090 -1.0029
 5651SOL     OW16951   3.319   2.183   3.088 -0.4468  0.8504 -0.0080
 5651SOL    HW116952   3.390   2.243   3.066 -0.3770  1.2051  1.1667
 5651SOL    HW216953   3.363   2.106   3.125 -0.5734  0.3060 -0.9527
 5652SOL     OW16954   1.657   1.076   1.114  0.2321  0.3528 -0.2996
 5652SOL    HW116955   1.644   1.090   1.020  0.1850 -0.6754 -0.4565
 5652SOL    HW216956   1.579   1.113   1.155 -0.5696 -0.7312 -0.8023
 5653SOL     OW16957   0.728   2.456   0.438 -0.3140 -0.0226 -0.8592
 5653SOL    HW116958   0.740   2.378   0.493 -1.4116 -0.0743 -0.6622
 5653SOL    HW216959   0.765   2.431   0.354  0.6624 -0.2311 -0.3787
 5654SOL     OW16960   4.964   0.564   2.071 -0.1767 -0.1224  0.9826
 5654SOL    HW116961   4.960   0.471   2.048 -1.9526  0.0567  0.4887
 5654SOL    HW216962   4.906   0.573   2.147 -1.6293  0.9247 -0.2123
 5655SOL     OW16963   3.064   0.893   0.391  0.3545 -0.0632 -0.2364
 5655SOL    HW116964   3.067   0.871   0.298  1.0048 -0.0838 -0.2187
 5655SOL    HW216965   3.045   0.987   0.393 -0.9867 -0.3214 -0.3500
 5656SOL     OW16966   5.952   3.317   0.773 -0.4634 -0.0925 -0.9767
 5656SOL    HW116967   5.943   3.256   0.847 -2.3707 -0.9278 -1.8224
 5656SOL    HW216968   6.044   3.310   0.747  0.8501  1.7634  2.5278
 5657SOL     OW16969   0.942   5.957   5.930  0.2193 -0.1600 -0.4362
 5657SOL    HW116970   0.922   5.876   5.977 -2.4212  1.4186  1.4724
 5657SOL    HW216971   0.868   5.970   5.872 -0.9951  2.2410  1.4511
 5658SOL     OW16972   0.024   4.173   3.618 -0.0343  0.5286 -0.1210
 5658SOL    HW116973   0.063   4.260   3.629 -3.6223  2.0768  1.7956
 5658SOL    HW216974   0.030   4.133   3.705  1.5676 -1.2382 -0.9799
 5659SOL     OW16975   0.719   2.348   2.876  0.3089 -0.2032 -0.1700
 5659SOL    HW116976   0.803   2.384   2.905  0.5011  0.2655 -1.2770
 5659SOL    HW216977   0.658   2.369   2.946  0.8297  0.6146  0.0456
 5660SOL     OW16978   0.998   3.659   0.913 -0.3106  0.3273  0.0033
 5660SOL    HW116979   0.912   3.677   0.951  0.9464  3.6107  1.7327
 5660SOL    HW216980   1.040   3.601   0.977 -0.0837  1.5281  0.9839
 5661SOL     OW16981   2.530   4.603   3.092 -0.4210 -0.3174  0.0595
 5661SOL    HW116982   2.479   4.548   3.033 -0.0254 -0.3470 -0.2599
 5661SOL    HW216983   2.605   4.630   3.039 -0.0532 -0.3635  0.5608
 5662SOL     OW16984   5.594   1.649   5.416 -0.4968  0.1808  0.3379
 5662SOL    HW116985   5.598   1.558   5.445 -1.2381 -0.3751 -1.2232
 5662SOL    HW216986   5.659   1.655   5.346  0.8991  1.3703  1.6514
 5663SOL     OW16987   4.603   1.505   3.544  0.0368  0.4879  0.1800
 5663SOL    HW116988   4.675   1.564   3.569  0.0781  0.6226 -0.2519
 5663SOL    HW216989   4.560   1.549   3.471 -1.5834  1.2560  1.5306
 5664SOL     OW16990   3.723   3.079   3.325  0.8522 -0.1523 -0.4231
 5664SOL    HW116991   3.803   3.128   3.347  0.5874 -0.5771  1.7708
 5664SOL    HW216992   3.660   3.107   3.391 -0.6849 -0.2044 -1.8160
 5665SOL     OW16993   1.962   2.107   0.182 -0.0201 -0.0181 -0.0788
 5665SOL    HW116994   1.909   2.030   0.207  1.5726 -0.0764  3.8327
 5665SOL    HW216995   1.922   2.180   0.229  0.2028  1.0573 -1.4817
 5666SOL     OW16996   1.487   3.572   2.674  0.6346 -0.4937  0.1266
 5666SOL    HW116997   1.502   3.498   2.733 -1.1346 -0.3838  0.7878
 5666SOL    HW216998   1.476   3.647   2.732  0.5687 -0.0555 -0.4441
 5667SOL     OW16999   5.634   4.904   4.873  0.0560 -0.3637  0.2518
 5667SOL    HW117000   5.699   4.843   4.838  0.6510  1.2091 -1.6296
 5667SOL    HW217001   5.687   4.970   4.919 -0.2777  0.3664 -0.3908
 5668SOL     OW17002   4.509   4.590   0.019 -0.2423  0.0303  0.1072
 5668SOL    HW117003   4.556   4.647   0.079 -1.2689  0.1292  0.8499
 5668SOL    HW217004   4.543   4.612  -0.068  1.6622 -0.4996  0.6799
 5669SOL     OW17005   1.714   2.612   4.900  0.0786  0.5201  0.4738
 5669SOL    HW117006   1.635   2.637   4.851 -1.2718 -2.5344  0.8857
 5669SOL    HW217007   1.781   2.672   4.868 -1.2520  0.2159 -3.4924
 5670SOL     OW17008   3.558   4.597   1.279  0.1432  0.1106  0.4395
 5670SOL    HW117009   3.554   4.504   1.304 -0.0840  0.3439  1.3088
 5670SOL    HW217010   3.648   4.623   1.299  0.5932 -0.2457 -1.0373
 5671SOL     OW17011   5.326   1.389   4.935  0.4666  0.5072 -0.5391
 5671SOL    HW117012   5.330   1.337   5.016  3.1630  1.1958 -0.1461
 5671SOL    HW217013   5.355   1.329   4.866  2.7117  1.1383 -0.2190
 5672SOL     OW17014   1.516   2.582   3.345  0.4678  0.2956 -0.0085
 5672SOL    HW117015   1.458   2.625   3.282  1.3514  1.9256  0.2263
 5672SOL    HW217016   1.533   2.496   3.308 -2.7304 -0.5974  0.3141
 5673SOL     OW17017   5.954   0.024   0.359  0.4042  0.3495  0.3441
 5673SOL    HW117018   5.996   0.099   0.317  0.4870  0.5457  0.7813
 5673SOL    HW217019   6.012  -0.001   0.430  0.8146 -0.6811 -0.3304
 5674SOL     OW17020   0.026   4.268   3.025 -0.5320  0.5014  0.0508
 5674SOL    HW117021   0.106   4.217   3.034 -0.0129  1.1352 -0.8128
 5674SOL    HW217022  -0.043   4.212   3.061  0.1272 -0.4906 -0.1960
 5675SOL     OW17023   0.195   4.623   0.379 -0.1104  0.6495 -0.2654
 5675SOL    HW117024   0.245   4.702   0.398 -0.0950  0.8698 -1.1706
 5675SOL    HW217025   0.227   4.594   0.294 -1.1134  0.4733 -0.5962
 5676SOL     OW17026   2.504   2.429   4.149  0.5568  0.3207  0.0037
 5676SOL    HW117027   2.573   2.365   4.133 -0.0975 -0.4807  0.2736
 5676SOL    HW217028   2.426   2.389   4.110  0.4742  1.7860 -1.4927
 5677SOL     OW17029   5.040   3.896   4.490 -0.0482 -0.2569 -1.0875
 5677SOL    HW117030   4.966   3.912   4.431 -0.6851 -0.7322 -0.4360
 5677SOL    HW217031   5.084   3.981   4.496 -0.4027 -0.0237 -1.6666
 5678SOL     OW17032   0.700   1.561   3.966  0.4229 -0.2682  0.2919
 5678SOL    HW117033   0.605   1.569   3.955  0.2854 -1.4470  0.5102
 5678SOL    HW217034   0.737   1.620   3.900 -0.4496  0.3344  0.3198
 5679SOL     OW17035   2.632   0.138   4.391 -0.3489  0.3178 -0.0069
 5679SOL    HW117036   2.557   0.078   4.396  0.6243 -1.0587 -1.1398
 5679SOL    HW217037   2.605   0.205   4.327 -0.5408 -0.2883 -0.5690
 5680SOL     OW17038   0.853   1.076   1.050  0.8508  0.1373  0.2428
 5680SOL    HW117039   0.873   1.154   0.999  0.2111  0.2404  0.1347
 5680SOL    HW217040   0.909   1.007   1.014  1.0024  0.4095 -0.0384
 5681SOL     OW17041   4.293   2.718   5.938 -0.1734  0.0343 -0.8087
 5681SOL    HW117042   4.386   2.695   5.936  0.0635  0.7601  0.7908
 5681SOL    HW217043   4.249   2.635   5.960  0.4000  0.2927  1.5921
 5682SOL     OW17044   3.777   4.374   3.480 -0.2498 -0.3116 -0.5570
 5682SOL    HW117045   3.860   4.348   3.439  1.1092  1.1552  1.0844
 5682SOL    HW217046   3.763   4.463   3.449 -0.2638  0.0786  0.5174
 5683SOL     OW17047   5.753   1.490   3.641  0.5771  0.2652 -0.0319
 5683SOL    HW117048   5.839   1.479   3.600  1.0393 -2.3829  1.4648
 5683SOL    HW217049   5.739   1.585   3.640  3.2543  0.7492 -0.8174
 5684SOL     OW17050   2.305   4.642   5.891 -0.6394  0.1669  0.3139
 5684SOL    HW117051   2.318   4.609   5.802 -2.4835 -0.7207  0.3289
 5684SOL    HW217052   2.284   4.735   5.878  0.2654  0.3229 -0.0795
 5685SOL     OW17053   3.363   1.422   0.070  0.1134 -0.5931 -0.0334
 5685SOL    HW117054   3.368   1.512   0.101  0.3519 -1.1495  1.6336
 5685SOL    HW217055   3.390   1.427  -0.022  1.4915  0.8499  0.4050
 5686SOL     OW17056   5.559   3.911   2.536  0.0144  0.0190 -0.6292
 5686SOL    HW117057   5.567   3.830   2.486  1.0299  0.4824 -1.2582
 5686SOL    HW217058   5.465   3.930   2.536 -0.0179  0.1100 -2.5885
 5687SOL     OW17059   4.448   1.507   5.826 -0.1681 -0.1142 -0.1306
 5687SOL    HW117060   4.484   1.514   5.914  0.5018 -1.9358 -0.2088
 5687SOL    HW217061   4.466   1.592   5.786 -0.7812  0.8673  1.5726
 5688SOL     OW17062   3.535   2.282   1.392 -0.2353 -0.5133  0.1306
 5688SOL    HW117063   3.516   2.225   1.466 -1.2498  1.2335  1.2591
 5688SOL    HW217064   3.491   2.239   1.318 -0.8039 -1.3033  0.8971
 5689SOL     OW17065   0.299   1.998   0.310 -0.5292  0.4788  0.0241
 5689SOL    HW117066   0.319   2.044   0.229 -1.3533 -2.2526 -1.8748
 5689SOL    HW217067   0.208   1.971   0.301 -0.4153 -0.5410  1.5215
 5690SOL     OW17068   4.055   3.218   3.597 -0.5175  0.1565 -0.2070
 5690SOL    HW117069   4.121   3.152   3.616 -1.0464 -0.5129 -0.6474
 5690SOL    HW217070   4.057   3.277   3.673 -0.4626 -0.7118  0.4796
 5691SOL     OW17071   4.767   4.300   5.885 -0.0834  0.2183 -0.2346
 5691SOL    HW117072   4.741   4.211   5.911  2.9194 -0.7365 -0.1431
 5691SOL    HW217073   4.818   4.288   5.805 -3.9729  2.5112 -3.4365
 5692SOL     OW17074   3.049   1.927   2.004  0.3171 -0.1535 -0.5698
 5692SOL    HW117075   3.098   1.998   2.046 -0.0957  0.3629 -0.9520
 5692SOL    HW217076   2.982   1.903   2.068  0.4466 -0.1934 -0.4473
 5693SOL     OW17077   3.892   1.452   3.952  0.4237  0.1191  0.2327
 5693SOL    HW117078   3.922   1.363   3.971  0.3254  0.5081  2.4502
 5693SOL    HW217079   3.963   1.508   3.984 -0.0323  0.8906 -0.0823
 5694SOL     OW17080   3.203   3.104   1.244 -0.1528  0.0281 -0.1994
 5694SOL    HW117081   3.170   3.128   1.157  0.7035 -2.1467 -1.1999
 5694SOL    HW217082   3.175   3.013   1.256  2.3530 -0.7408  0.4304
 5695SOL     OW17083   4.999   2.988   6.003  0.3029  0.0352  0.0610
 5695SOL    HW117084   5.032   2.976   5.914  0.2998  1.8679 -0.2279
 5695SOL    HW217085   5.040   3.069   6.033  1.3272 -1.1758  2.2513
 5696SOL     OW17086   5.201   5.219   4.588 -0.4390 -0.3061 -0.1380
 5696SOL    HW117087   5.283   5.175   4.605  0.1254  0.2253 -1.3371
 5696SOL    HW217088   5.152   5.159   4.531 -1.4836 -1.2126  1.6230
 5697SOL     OW17089   4.125   3.531   2.949  0.0585  0.2761  0.5545
 5697SOL    HW117090   4.049   3.588   2.960  0.3092  0.4861  1.2559
 5697SOL    HW217091   4.199   3.582   2.982  0.5197  0.0866 -0.1451
 5698SOL     OW17092   5.628   0.022   5.651  0.0341  0.7373  0.4168
 5698SOL    HW117093   5.553   0.081   5.641  0.4591  1.0895 -0.8114
 5698SOL    HW217094   5.660   0.039   5.740  0.5646  2.8703 -0.1215
 5699SOL     OW17095   4.793   4.950   3.534  0.2522 -0.7389 -0.3713
 5699SOL    HW117096   4.888   4.961   3.545  0.3342 -0.3092 -1.3219
 5699SOL    HW217097   4.777   4.979   3.444 -1.0117  0.6981  0.2659
 5700SOL     OW17098   0.435   4.091   0.435 -0.1273 -0.2128  0.0728
 5700SOL    HW117099   0.461   4.075   0.525 -1.6242  0.5772  0.6926
 5700SOL    HW217100   0.378   4.168   0.440 -0.4375 -0.2965 -1.5166
 5701SOL     OW17101   3.173   2.639   0.695 -0.3316 -0.1719  0.2456
 5701SOL    HW117102   3.214   2.715   0.654  1.7771 -0.3615  1.8918
 5701SOL    HW217103   3.111   2.607   0.628  1.3404  0.8171 -1.9076
 5702SOL     OW17104   1.538   2.587   4.234 -0.0464  0.2525  0.3160
 5702SOL    HW117105   1.451   2.568   4.197 -0.2498  2.4623 -0.4487
 5702SOL    HW217106   1.594   2.601   4.159  0.5040  0.7901  0.8156
 5703SOL     OW17107   2.788   3.004   2.450 -0.3904  0.4366 -0.1722
 5703SOL    HW117108   2.755   2.976   2.535  0.4504  1.2764  0.4543
 5703SOL    HW217109   2.721   3.063   2.416 -0.5203  0.4590  0.1224
 5704SOL     OW17110   4.667   4.376   3.325 -0.0197  1.1599  0.2703
 5704SOL    HW117111   4.634   4.287   3.309 -0.0522  1.2979 -0.4569
 5704SOL    HW217112   4.588   4.429   3.335 -0.0782  1.5781 -1.9493
 5705SOL     OW17113   0.410   3.245   0.009  0.1234 -0.3936  0.0104
 5705SOL    HW117114   0.337   3.298   0.039  0.6266  0.8317 -0.8501
 5705SOL    HW217115   0.487   3.284   0.051  0.4987 -0.4641 -0.5912
 5706SOL     OW17116   4.160   1.671   1.196 -0.3524 -0.2323  0.0340
 5706SOL    HW117117   4.092   1.735   1.217  0.5856  0.6169  0.5887
 5706SOL    HW217118   4.113   1.588   1.188 -1.4780  0.3625  0.1704
 5707SOL     OW17119   1.605   1.145   3.233  0.0728 -0.5432  0.2193
 5707SOL    HW117120   1.663   1.196   3.176  2.4341 -2.0237  1.1594
 5707SOL    HW217121   1.583   1.067   3.181 -2.2522  0.5648 -0.6172
 5708SOL     OW17122   0.592   3.009   2.331  0.1703  0.4096  0.0060
 5708SOL    HW117123   0.652   3.015   2.405  0.6277 -0.7296 -0.2446
 5708SOL    HW217124   0.562   3.099   2.316  0.5498  0.7450  1.1658
 5709SOL     OW17125   1.687   1.650   3.583  0.1629  0.2647 -0.0792
 5709SOL    HW117126   1.664   1.577   3.525  0.9646 -0.1530  0.1135
 5709SOL    HW217127   1.783   1.650   3.585  0.1493  0.2461  1.2784
 5710SOL     OW17128   3.540   3.099   5.122  0.4505  0.2465 -0.1130
 5710SOL    HW117129   3.490   3.173   5.155  0.5607  0.7458 -1.0330
 5710SOL    HW217130   3.476   3.044   5.078 -0.0772 -1.4829  2.5825
 5711SOL     OW17131   1.421   5.101   2.562 -0.2221 -0.9324 -0.3092
 5711SOL    HW117132   1.467   5.159   2.502  0.0950  1.0568  1.7084
 5711SOL    HW217133   1.489   5.065   2.618 -0.6948 -1.2198  0.0915
 5712SOL     OW17134   5.865   2.450   3.735 -0.6765  0.0704 -0.0557
 5712SOL    HW117135   5.906   2.449   3.649 -0.6887 -0.7258 -0.0655
 5712SOL    HW217136   5.902   2.373   3.779 -2.8514 -1.2686 -0.4186
 5713SOL     OW17137   2.503   3.606   4.141  0.3896  0.4586 -0.1304
 5713SOL    HW117138   2.444   3.537   4.171 -0.4023  1.6364  1.1242
 5713SOL    HW217139   2.533   3.649   4.221  1.1894  1.3116 -0.8632
 5714SOL     OW17140   4.399   3.186   4.218  0.2615  0.1224 -0.0403
 5714SOL    HW117141   4.464   3.203   4.150  0.4187 -0.6868 -0.1029
 5714SOL    HW217142   4.439   3.119   4.273  1.3434  2.7018  2.5278
 5715SOL     OW17143   4.731   4.340   2.498 -0.1708  0.4941 -0.0356
 5715SOL    HW117144   4.787   4.268   2.528  1.9098  2.2459  0.5472
 5715SOL    HW217145   4.688   4.372   2.577  2.0613  2.4185  0.4851
 5716SOL     OW17146   3.940   1.811   3.588  0.1824 -0.4346  0.3448
 5716SOL    HW117147   4.025   1.786   3.553  0.9479  2.5608 -0.1556
 5716SOL    HW217148   3.940   1.778   3.678  0.8446 -2.5041 -0.3522
 5717SOL     OW17149   3.361   3.675   2.103  0.1901 -0.5398  0.9644
 5717SOL    HW117150   3.395   3.608   2.044  0.4446 -0.5052  1.0678
 5717SOL    HW217151   3.439   3.706   2.150  0.3853  1.0642 -0.3075
 5718SOL     OW17152   0.076   1.044   2.123 -0.6077 -0.0700 -0.3380
 5718SOL    HW117153   0.076   1.058   2.218 -1.9563 -0.5416 -0.2347
 5718SOL    HW217154   0.158   1.082   2.093  1.1528 -2.2826  1.3496
 5719SOL     OW17155   1.489   2.681   4.534  0.4759  0.3642 -0.3854
 5719SOL    HW117156   1.411   2.628   4.549 -0.5497  2.4995  2.7543
 5719SOL    HW217157   1.490   2.697   4.439 -0.5795 -2.9335 -1.0942
 5720SOL     OW17158   5.412   1.377   4.301 -0.4015 -0.4568 -0.2153
 5720SOL    HW117159   5.334   1.361   4.249 -1.0516 -0.5779  0.7731
 5720SOL    HW217160   5.475   1.415   4.239 -1.2939 -0.1914 -0.9781
 5721SOL     OW17161   4.069   3.587   5.640  0.1189  0.0105 -0.0822
 5721SOL    HW117162   4.101   3.498   5.658 -1.0506 -0.0956  1.7198
 5721SOL    HW217163   3.988   3.593   5.690 -1.2213  1.2146 -2.2910
 5722SOL     OW17164   3.981   1.233   0.337  0.5538  0.2072  0.2736
 5722SOL    HW117165   4.066   1.273   0.317  0.0667  1.5087  0.7093
 5722SOL    HW217166   3.961   1.179   0.260  0.2706  2.4595 -1.3478
 5723SOL     OW17167   0.059   4.762   4.186 -0.4258 -0.0983  0.5188
 5723SOL    HW117168   0.011   4.788   4.107  1.2746 -0.5870 -0.7220
 5723SOL    HW217169   0.110   4.685   4.160  2.0630  1.1593  1.3330
 5724SOL     OW17170   5.157   4.771   5.016 -0.1952  0.9558  0.5328
 5724SOL    HW117171   5.107   4.846   4.984  0.1223  0.2441 -1.8451
 5724SOL    HW217172   5.238   4.809   5.051 -0.0870  1.7611 -0.5335
 5725SOL     OW17173   3.585   4.142   4.954  0.4713  0.2836  0.1912
 5725SOL    HW117174   3.537   4.195   4.891 -1.8691 -2.0210 -0.1056
 5725SOL    HW217175   3.676   4.146   4.924 -0.1371  1.5033 -1.6494
 5726SOL     OW17176   1.068   2.043   3.687 -1.0268 -0.1507 -0.4619
 5726SOL    HW117177   0.980   2.060   3.654 -0.1889  1.8043 -1.8509
 5726SOL    HW217178   1.118   2.017   3.610 -0.0879 -0.0565  0.0991
 5727SOL     OW17179   5.457   5.133   1.609  0.1479 -0.6375 -0.0616
 5727SOL    HW117180   5.491   5.204   1.554 -1.1957  0.0062 -0.1026
 5727SOL    HW217181   5.412   5.177   1.681 -0.7000 -1.4411 -0.0761
 5728SOL     OW17182   4.786   1.175   2.294 -0.2298  0.4595  0.5030
 5728SOL    HW117183   4.776   1.242   2.361  1.2575 -0.3338  1.5562
 5728SOL    HW217184   4.763   1.219   2.212 -0.7557  1.8138  1.3571
 5729SOL     OW17185   4.726   3.181   4.916  0.0605  0.3384  0.6954
 5729SOL    HW117186   4.695   3.219   4.998  0.7484  0.9810  0.6714
 5729SOL    HW217187   4.715   3.087   4.928  1.8248  0.2623  2.2806
 5730SOL     OW17188   3.369   2.592   0.329 -0.1618 -0.1464 -0.6317
 5730SOL    HW117189   3.294   2.618   0.275 -0.0285 -0.5466 -1.0202
 5730SOL    HW217190   3.338   2.516   0.378 -0.0415 -0.2508 -0.7176
 5731SOL     OW17191   3.851   0.253   4.587  0.1163  0.7602  0.4313
 5731SOL    HW117192   3.764   0.219   4.606  0.6720 -0.9925 -0.0369
 5731SOL    HW217193   3.906   0.224   4.660  0.5795  0.7820  0.0982
 5732SOL     OW17194   4.370   2.925   5.339 -0.5571  0.0136  0.1649
 5732SOL    HW117195   4.385   2.832   5.354  0.5924 -0.1457 -1.5836
 5732SOL    HW217196   4.292   2.928   5.284 -0.0915 -0.0217 -0.5233
 5733SOL     OW17197   0.275   4.173   5.157 -0.1975 -0.2990  0.7803
 5733SOL    HW117198   0.277   4.108   5.087 -1.4175 -0.4747  0.8916
 5733SOL    HW217199   0.338   4.139   5.222  0.4557 -0.4634  0.0761
 5734SOL     OW17200   2.544   4.584   3.583  0.2836 -0.0559 -0.0681
 5734SOL    HW117201   2.585   4.583   3.669 -0.8141 -1.8703  0.4903
 5734SOL    HW217202   2.602   4.532   3.527  0.7070  0.6455 -0.2876
 5735SOL     OW17203   5.518   3.827   1.377  0.2565 -0.1814  0.0739
 5735SOL    HW117204   5.608   3.858   1.388 -0.2568  1.3662  0.1637
 5735SOL    HW217205   5.500   3.837   1.284 -0.4229  1.3472  0.3395
 5736SOL     OW17206   1.404   2.332   4.889  0.0387  0.0789  0.3066
 5736SOL    HW117207   1.432   2.285   4.967  1.5702  0.9451  0.3201
 5736SOL    HW217208   1.468   2.307   4.822 -0.7350  0.0308 -0.4327
 5737SOL     OW17209   3.603   2.828   5.340  0.3994  0.1290  0.5899
 5737SOL    HW117210   3.556   2.851   5.260 -1.5235 -0.2842  1.5285
 5737SOL    HW217211   3.643   2.743   5.321 -2.6400 -1.5274  0.9562
 5738SOL     OW17212   4.829   2.426   4.937  0.6711 -0.2433  0.3350
 5738SOL    HW117213   4.856   2.472   4.857  1.3572  0.3464  0.8896
 5738SOL    HW217214   4.794   2.343   4.906  1.4206 -0.2518 -0.5557
 5739SOL     OW17215   2.861   3.746   5.411  0.3786  0.2478  0.4800
 5739SOL    HW117216   2.951   3.750   5.444 -0.0021  1.2968  1.4512
 5739SOL    HW217217   2.807   3.740   5.489 -0.4078 -0.3116 -0.0954
 5740SOL     OW17218   5.843   2.003   0.641  0.5006  0.1954  0.1883
 5740SOL    HW117219   5.839   1.922   0.590  0.2229  1.9616 -2.8884
 5740SOL    HW217220   5.769   1.998   0.701  0.1243 -1.5415 -0.3656
 5741SOL     OW17221   4.877   5.150   1.165 -0.1869  0.0154  0.1077
 5741SOL    HW117222   4.923   5.162   1.082 -0.9856  1.3292 -0.1848
 5741SOL    HW217223   4.792   5.114   1.140 -0.3821  0.2917  0.3624
 5742SOL     OW17224   4.451   4.302   1.300 -0.0840  0.0660  0.4834
 5742SOL    HW117225   4.362   4.284   1.269 -0.1195 -0.4794  0.8793
 5742SOL    HW217226   4.452   4.395   1.320 -0.6040  0.0478  0.5912
 5743SOL     OW17227   1.635   5.740   0.556  0.6688 -0.6835  0.2054
 5743SOL    HW117228   1.698   5.774   0.620  0.7054 -0.3883  0.0174
 5743SOL    HW217229   1.568   5.808   0.551 -0.2802 -1.5045  1.2624
 5744SOL     OW17230   4.533   0.309   1.224  0.8028  0.1266  0.2672
 5744SOL    HW117231   4.522   0.395   1.264  1.4061  0.3866 -0.1094
 5744SOL    HW217232   4.628   0.298   1.215  0.7046 -0.1912 -0.4957
 5745SOL     OW17233   4.777   2.340   1.250 -0.3133 -0.4106 -0.0025
 5745SOL    HW117234   4.818   2.257   1.273 -1.4192 -0.8595  0.4274
 5745SOL    HW217235   4.686   2.318   1.233 -0.4687  0.6124 -0.5691
 5746SOL     OW17236   1.011   2.821   0.952 -0.1601  1.1975 -0.1135
 5746SOL    HW117237   1.025   2.915   0.938 -1.3578  1.3329 -0.5149
 5746SOL    HW217238   0.942   2.798   0.890  0.8122 -0.1810 -0.7156
 5747SOL     OW17239   0.288   1.515   5.788  0.0381 -0.3218  0.4615
 5747SOL    HW117240   0.193   1.517   5.778 -0.1709 -0.8755  1.9728
 5747SOL    HW217241   0.301   1.483   5.878  1.6597 -0.7134  0.1074
 5748SOL     OW17242   5.192   4.360   2.540  0.3627  0.2165  0.4244
 5748SOL    HW117243   5.257   4.431   2.533  0.2045  0.4942  1.5654
 5748SOL    HW217244   5.139   4.369   2.461  0.7811  0.9407  0.2130
 5749SOL     OW17245   1.199   3.534   5.032  0.8918  0.4796  0.8490
 5749SOL    HW117246   1.193   3.619   5.075  0.5170  1.0685 -0.3297
 5749SOL    HW217247   1.266   3.545   4.964  0.8838 -0.1811  0.7239
 5750SOL     OW17248   3.993   5.267   1.869  0.0823  0.0762  0.2202
 5750SOL    HW117249   4.052   5.338   1.895 -0.3017  1.0977 -1.5291
 5750SOL    HW217250   4.041   5.187   1.890  0.1242  0.7577  3.1906
 5751SOL     OW17251   3.264   1.124   0.163  0.2627 -0.4205  0.2074
 5751SOL    HW117252   3.287   1.033   0.144  0.6675 -0.5035  1.0449
 5751SOL    HW217253   3.312   1.176   0.098  0.2021 -0.7877 -0.1332
 5752SOL     OW17254   2.844   5.653   2.216  0.1215  0.0151 -0.5407
 5752SOL    HW117255   2.908   5.700   2.162  0.6580  0.4131  0.4184
 5752SOL    HW217256   2.895   5.586   2.261 -0.3289 -0.3450 -0.5686
 5753SOL     OW17257   5.751   2.716   1.290 -0.1617 -0.6042  0.3923
 5753SOL    HW117258   5.686   2.655   1.325  0.2611 -0.4987  1.4038
 5753SOL    HW217259   5.728   2.800   1.330 -0.7133 -0.0994 -0.9516
 5754SOL     OW17260   5.828   3.908   1.096  0.6030 -1.0090  0.4127
 5754SOL    HW117261   5.855   3.995   1.065 -0.4347 -0.6340  0.5044
 5754SOL    HW217262   5.805   3.860   1.016  1.6115 -1.3682  0.3253
 5755SOL     OW17263   1.938   3.721   1.839 -0.5172  0.6012  0.3700
 5755SOL    HW117264   1.992   3.764   1.772 -0.5681 -0.9500 -0.7185
 5755SOL    HW217265   1.965   3.761   1.921  2.5636 -0.3252 -0.0584
 5756SOL     OW17266   0.060   3.985   2.005 -0.3402 -0.3708 -0.2447
 5756SOL    HW117267   0.102   3.956   1.924 -1.3480  1.3838 -1.4644
 5756SOL    HW217268  -0.018   3.930   2.012  0.7269 -1.8467  0.6266
 5757SOL     OW17269   4.389   3.002   2.701  0.5838  0.2638  0.7645
 5757SOL    HW117270   4.443   3.038   2.631  0.3916 -3.2297 -1.4361
 5757SOL    HW217271   4.302   2.995   2.663  0.3034 -0.9932  1.5669
 5758SOL     OW17272   0.371   2.858   1.890  0.0673  0.5893 -0.0500
 5758SOL    HW117273   0.437   2.873   1.958  1.2136  0.1405 -1.0250
 5758SOL    HW217274   0.325   2.942   1.883  1.9874  1.6262 -0.8456
 5759SOL     OW17275   2.877   5.264   5.884 -0.2116  0.1312  0.1232
 5759SOL    HW117276   2.783   5.269   5.903 -0.0420 -1.8331  1.8392
 5759SOL    HW217277   2.885   5.291   5.793 -2.3850  0.7549  0.0688
 5760SOL     OW17278   4.762   3.385   0.887  0.0060  0.2738 -0.1014
 5760SOL    HW117279   4.833   3.329   0.917  1.1756  1.2585 -0.9140
 5760SOL    HW217280   4.748   3.447   0.960 -0.0635  0.0403  0.0840
 5761SOL     OW17281   1.008   2.530   1.386  0.3241 -0.2514 -0.0096
 5761SOL    HW117282   0.929   2.477   1.373  0.0707  0.1071  0.0452
 5761SOL    HW217283   1.061   2.514   1.308  1.4669 -2.6285  1.1557
 5762SOL     OW17284   0.479   2.215   3.267 -0.1621  0.1599 -0.3513
 5762SOL    HW117285   0.388   2.243   3.276 -0.5759 -1.2291  0.0997
 5762SOL    HW217286   0.478   2.159   3.189  0.1947 -0.2619 -0.0562
 5763SOL     OW17287   3.285   3.935   4.544  0.5926  0.0135 -0.4081
 5763SOL    HW117288   3.363   3.974   4.584  0.5698  0.0037 -0.3537
 5763SOL    HW217289   3.244   3.886   4.615  0.7778 -0.3515 -0.5473
 5764SOL     OW17290   4.860   3.878   1.157  0.3155 -0.3652  0.3024
 5764SOL    HW117291   4.788   3.825   1.192 -0.3375  0.8521  0.8430
 5764SOL    HW217292   4.924   3.813   1.128 -0.9183 -1.4758 -0.0548
 5765SOL     OW17293   4.333   3.263   1.045  0.2129 -0.4988  0.4946
 5765SOL    HW117294   4.299   3.174   1.037 -0.0048 -0.3179 -0.9223
 5765SOL    HW217295   4.425   3.252   1.068  0.9287 -1.2429 -2.3030
 5766SOL     OW17296   3.398   2.853   0.872  0.2153 -0.2771 -0.5694
 5766SOL    HW117297   3.331   2.836   0.805 -0.2214 -1.5965  0.1691
 5766SOL    HW217298   3.466   2.789   0.853 -0.3890 -1.3990  0.8546
 5767SOL     OW17299   3.046   3.984   5.618  0.0802  0.8673  0.3292
 5767SOL    HW117300   3.049   3.974   5.713 -1.6242  0.4845  0.3650
 5767SOL    HW217301   2.968   4.037   5.602 -0.0446  0.3281 -0.8985
 5768SOL     OW17302   3.010   2.376   1.903  0.1385 -0.9492  0.1047
 5768SOL    HW117303   2.984   2.399   1.992  0.4944 -1.8056  0.4507
 5768SOL    HW217304   2.933   2.335   1.864 -0.6446  1.1441 -0.6716
 5769SOL     OW17305   2.477   2.199   4.930 -0.3541  0.0876 -0.1324
 5769SOL    HW117306   2.416   2.139   4.973  0.2389 -1.6779 -1.6363
 5769SOL    HW217307   2.422   2.256   4.877 -0.9119  0.7490  1.1265
 5770SOL     OW17308   1.795   0.851   1.570  0.2919  0.0531 -0.4683
 5770SOL    HW117309   1.795   0.856   1.474  1.7871  1.3493 -0.4433
 5770SOL    HW217310   1.878   0.892   1.596 -0.9925  1.6061  1.4598
 5771SOL     OW17311   4.990   0.462   0.761 -0.0171 -0.0872  0.0148
 5771SOL    HW117312   4.915   0.467   0.821 -0.2848  0.2974 -0.3448
 5771SOL    HW217313   4.957   0.496   0.678  0.1202 -1.3869 -0.5928
 5772SOL     OW17314   5.345   3.895   4.710  0.0119  0.2889  0.4356
 5772SOL    HW117315   5.409   3.957   4.745  0.0895  0.2428  0.3736
 5772SOL    HW217316   5.261   3.928   4.742  0.0163  0.6403  0.0848
 5773SOL     OW17317   5.398   2.960   5.796 -0.5944 -0.1863 -0.0365
 5773SOL    HW117318   5.362   2.939   5.882  1.5004  1.9334  1.4901
 5773SOL    HW217319   5.395   3.055   5.791  3.0557  0.0658 -0.4203
 5774SOL     OW17320   2.508   2.490   5.673 -0.2817  0.1405  0.3014
 5774SOL    HW117321   2.583   2.452   5.627 -0.2752  0.3910  0.0981
 5774SOL    HW217322   2.453   2.526   5.603 -2.4724 -3.2198  0.0711
 5775SOL     OW17323   4.590   4.397   4.131 -0.0821  0.2011 -0.1990
 5775SOL    HW117324   4.570   4.335   4.201 -0.0370 -0.4263 -0.7272
 5775SOL    HW217325   4.504   4.425   4.099 -0.1468  1.8426  1.2320
 5776SOL     OW17326   5.440   4.147   1.734 -0.9697 -0.0353  0.3072
 5776SOL    HW117327   5.417   4.224   1.786 -0.0232  0.2247  0.3674
 5776SOL    HW217328   5.430   4.177   1.643 -0.2499  0.2850  0.3258
 5777SOL     OW17329   5.567   4.180   0.628 -0.8327 -0.2298 -0.1274
 5777SOL    HW117330   5.495   4.231   0.665 -1.9634 -0.5535 -1.7339
 5777SOL    HW217331   5.615   4.242   0.573 -0.9626 -0.4194 -0.4571
 5778SOL     OW17332   4.263   5.596   0.749  0.1931  0.0899 -0.3167
 5778SOL    HW117333   4.190   5.655   0.732  1.0069  0.5971 -2.4241
 5778SOL    HW217334   4.340   5.643   0.716  1.0801 -1.5139 -0.6569
 5779SOL     OW17335   2.867   0.469   0.552 -0.4436 -0.0013  0.2214
 5779SOL    HW117336   2.940   0.482   0.492 -1.7573 -1.2498 -1.7536
 5779SOL    HW217337   2.795   0.519   0.515 -1.7861 -2.1668 -0.3133
 5780SOL     OW17338   0.568   1.015   1.668  0.0851 -0.0086  0.0165
 5780SOL    HW117339   0.497   1.005   1.604 -0.4118  1.3726  0.3134
 5780SOL    HW217340   0.598   0.925   1.684  0.6961 -0.3771 -2.6386
 5781SOL     OW17341   5.930   5.512   4.754 -0.0425  0.1585  0.3624
 5781SOL    HW117342   5.928   5.571   4.829 -0.1039 -0.3730  0.7862
 5781SOL    HW217343   5.986   5.556   4.690 -1.0589  1.2438  0.1834
 5782SOL     OW17344   5.292   4.785   5.646 -0.2449 -0.0429 -0.3698
 5782SOL    HW117345   5.319   4.830   5.566  2.9185 -1.5544 -0.3015
 5782SOL    HW217346   5.200   4.762   5.631  0.2269 -0.2217 -3.5695
 5783SOL     OW17347   1.116   3.300   2.184  0.3378 -0.0656 -0.0453
 5783SOL    HW117348   1.123   3.385   2.141  0.0054  0.0822  0.1888
 5783SOL    HW217349   1.141   3.316   2.274  0.2462 -0.2112  0.0069
 5784SOL     OW17350   2.745   4.712   1.922 -0.5998  0.6142  0.1185
 5784SOL    HW117351   2.663   4.760   1.905 -0.8986  0.8468  1.9790
 5784SOL    HW217352   2.797   4.773   1.975  1.1507  0.7847 -1.7096
 5785SOL     OW17353   3.965   1.614   3.371  0.3013  0.6600  0.2030
 5785SOL    HW117354   3.929   1.631   3.458 -1.3137  0.2758 -0.3413
 5785SOL    HW217355   3.959   1.519   3.361  0.5458  0.6934 -0.2892
 5786SOL     OW17356   5.251   2.642   4.830  0.8083  0.2196  0.1111
 5786SOL    HW117357   5.313   2.645   4.903  1.1504 -1.6957 -0.0521
 5786SOL    HW217358   5.303   2.612   4.755  0.0096  0.0285 -0.3818
 5787SOL     OW17359   1.579   0.506   3.946  0.1303 -0.4017 -0.1060
 5787SOL    HW117360   1.653   0.486   3.889  0.0371  1.7166 -1.0825
 5787SOL    HW217361   1.619   0.535   4.028  0.3508 -0.3365 -0.2362
 5788SOL     OW17362   3.570   3.606   0.626 -0.1163 -0.2236  0.4032
 5788SOL    HW117363   3.662   3.609   0.600 -0.1788  0.0536  0.2120
 5788SOL    HW217364   3.564   3.671   0.696 -0.2854  0.1586  0.0356
 5789SOL     OW17365   1.417   3.149   3.649  0.3253 -0.1779 -0.5256
 5789SOL    HW117366   1.385   3.080   3.591  0.1134  0.0916 -0.7357
 5789SOL    HW217367   1.510   3.156   3.630  0.7929 -1.7790  0.9214
 5790SOL     OW17368   1.869   5.271   0.429  0.3723  0.6153 -0.0391
 5790SOL    HW117369   1.942   5.217   0.460  0.1004  0.5708  0.5412
 5790SOL    HW217370   1.856   5.245   0.338 -0.4008 -1.0471  0.5083
 5791SOL     OW17371   0.079   2.295   4.019  0.8717 -0.3792  0.3831
 5791SOL    HW117372   0.153   2.252   3.976  0.5613 -1.2898  0.7208
 5791SOL    HW217373   0.011   2.228   4.022 -0.3845  0.7764 -0.9090
 5792SOL     OW17374   5.500   3.855   4.227 -0.0483 -0.1528  0.1214
 5792SOL    HW117375   5.577   3.900   4.260  0.2106 -0.1943 -0.4267
 5792SOL    HW217376   5.426   3.904   4.263  0.2220 -0.5957  1.3161
 5793SOL     OW17377   3.242   5.773   1.562 -1.0088 -0.1493  0.0332
 5793SOL    HW117378   3.315   5.740   1.510  0.0168  1.6766  0.2267
 5793SOL    HW217379   3.196   5.833   1.504 -1.7833 -0.5247  0.2424
 5794SOL     OW17380   2.100   4.858   4.810  0.7632 -0.1826 -0.9349
 5794SOL    HW117381   2.182   4.809   4.821  1.5236  1.4806  1.2983
 5794SOL    HW217382   2.066   4.870   4.898 -0.2180  1.9216 -1.5288
 5795SOL     OW17383   5.350   0.933   2.680 -0.3991  0.0194 -0.2857
 5795SOL    HW117384   5.415   0.927   2.610  0.9140  0.4428  0.8239
 5795SOL    HW217385   5.266   0.928   2.636  0.3800 -0.7740 -1.7739
 5796SOL     OW17386   1.623   1.730   2.204  0.3493 -0.2608 -0.3473
 5796SOL    HW117387   1.638   1.820   2.176 -1.3332 -0.0722 -0.8025
 5796SOL    HW217388   1.534   1.711   2.173  1.0983 -2.4783 -1.3018
 5797SOL     OW17389   1.060   0.929   3.026 -0.0657 -0.1460  0.6091
 5797SOL    HW117390   1.068   0.871   3.102  1.2434  0.8950  1.3054
 5797SOL    HW217391   1.105   0.882   2.956  0.0179 -0.4602  0.8669
 5798SOL     OW17392   5.560   2.526   1.373  0.2441  0.1248  0.2292
 5798SOL    HW117393   5.599   2.489   1.294  1.6103  1.9978 -0.0313
 5798SOL    HW217394   5.520   2.451   1.417  2.5915 -1.6347 -0.4198
 5799SOL     OW17395   4.228   4.835   2.582  0.3090 -0.0876 -0.6861
 5799SOL    HW117396   4.200   4.799   2.667 -1.0503  1.6344 -0.3598
 5799SOL    HW217397   4.297   4.775   2.553 -1.0300 -2.2779  0.3580
 5800SOL     OW17398   2.140   4.532   0.166 -0.0542  0.3741 -0.1011
 5800SOL    HW117399   2.187   4.517   0.084 -3.0439 -1.3490 -1.7072
 5800SOL    HW217400   2.111   4.445   0.193 -1.5898  1.2246  1.1851
 5801SOL     OW17401   3.266   3.116   5.788  0.2667  0.1622  0.5103
 5801SOL    HW117402   3.260   3.032   5.834  0.7040  0.1424  0.5270
 5801SOL    HW217403   3.334   3.165   5.834  0.9792 -0.0028 -0.3330
 5802SOL     OW17404   0.449   2.712   4.422 -0.0377 -0.4723  0.3183
 5802SOL    HW117405   0.401   2.752   4.350  0.5508  1.0612  0.7503
 5802SOL    HW217406   0.381   2.672   4.476 -0.7424  0.7454  0.3622
 5803SOL     OW17407   4.911   5.043   5.854 -0.5896 -0.0480 -0.6637
 5803SOL    HW117408   4.905   4.954   5.819 -0.0292  0.4912 -2.2284
 5803SOL    HW217409   4.827   5.083   5.830 -0.3323  0.2268 -1.1110
 5804SOL     OW17410   3.625   4.370   1.613  0.0147  0.1909 -0.2213
 5804SOL    HW117411   3.594   4.280   1.611 -1.0153  0.5400 -1.0602
 5804SOL    HW217412   3.629   4.392   1.707 -1.9103 -0.0232 -0.0421
 5805SOL     OW17413   3.447   0.768   4.200  0.4672  0.0745 -0.1876
 5805SOL    HW117414   3.507   0.722   4.258  0.7857 -0.2575 -0.7700
 5805SOL    HW217415   3.490   0.851   4.181 -0.0971  0.6172  0.8453
 5806SOL     OW17416   2.683   5.490   1.904 -0.1659  0.0246 -0.3603
 5806SOL    HW117417   2.687   5.575   1.859 -0.3704 -0.1213 -0.6556
 5806SOL    HW217418   2.626   5.506   1.979 -0.2977  0.1214 -0.4795
 5807SOL     OW17419   2.548   5.037   1.543 -0.0930  0.3289 -0.4402
 5807SOL    HW117420   2.561   5.111   1.602  0.7885  0.2518 -0.5289
 5807SOL    HW217421   2.491   4.977   1.592  1.7868 -0.4147  0.9695
 5808SOL     OW17422   2.938   0.100   2.767 -0.0792 -0.3471 -0.0195
 5808SOL    HW117423   3.022   0.059   2.784  1.0445  1.7818 -0.1852
 5808SOL    HW217424   2.925   0.161   2.841 -0.9583  0.1239 -0.5406
 5809SOL     OW17425   3.936   4.260   0.221 -0.1055 -0.3507 -0.7165
 5809SOL    HW117426   3.969   4.192   0.162  0.2986 -0.5113 -0.2998
 5809SOL    HW217427   3.969   4.342   0.184  1.6853 -0.5731  0.2858
 5810SOL     OW17428   2.540   0.709   1.116  0.5540  0.0069  0.1362
 5810SOL    HW117429   2.535   0.616   1.094  0.5197  0.4890 -2.1415
 5810SOL    HW217430   2.470   0.722   1.179  0.1081 -1.3800 -0.0363
 5811SOL     OW17431   5.739   4.823   1.187  0.1651 -0.4892  0.0660
 5811SOL    HW117432   5.764   4.742   1.231  0.3367 -0.7531 -0.5070
 5811SOL    HW217433   5.644   4.815   1.173  0.0359 -0.2165  0.7608
 5812SOL     OW17434   4.316   0.183   0.233  0.4243 -0.2892  0.1057
 5812SOL    HW117435   4.406   0.210   0.215  0.0012  1.2662  0.1701
 5812SOL    HW217436   4.302   0.204   0.325 -0.5578  1.2589 -0.3531
 5813SOL     OW17437   5.899   1.592   5.464  0.1382  0.3686  0.0404
 5813SOL    HW117438   5.877   1.514   5.412 -3.1561  1.3681 -0.3067
 5813SOL    HW217439   5.845   1.585   5.542  1.2635  1.3939  0.9495
 5814SOL     OW17440   2.543   3.269   5.595 -0.3330  0.2606 -0.1171
 5814SOL    HW117441   2.489   3.315   5.660 -0.5084  0.9888 -0.7610
 5814SOL    HW217442   2.569   3.188   5.638 -1.8152 -0.0360  0.2690
 5815SOL     OW17443   3.217   0.443   1.538 -0.0788 -0.2832 -0.6992
 5815SOL    HW117444   3.292   0.384   1.540 -0.4042 -0.6759  0.0257
 5815SOL    HW217445   3.202   0.467   1.629 -0.6906 -0.0211 -0.8596
 5816SOL     OW17446   1.433   0.277   2.093 -0.3344 -0.2605  0.2239
 5816SOL    HW117447   1.516   0.262   2.048 -0.4208  0.8213 -0.3410
 5816SOL    HW217448   1.369   0.225   2.044 -0.0629 -0.8161  0.4464
 5817SOL     OW17449   2.853   4.676   5.121 -0.7064  0.5242 -0.4616
 5817SOL    HW117450   2.810   4.620   5.185 -0.8307  0.4313 -0.6266
 5817SOL    HW217451   2.805   4.759   5.125 -1.0534  0.3391 -0.8209
 5818SOL     OW17452   2.603   5.234   1.755  0.2600  0.3315 -0.1526
 5818SOL    HW117453   2.522   5.207   1.798  1.0843 -0.3291  1.0495
 5818SOL    HW217454   2.626   5.317   1.798  0.3825  0.3573 -0.2699
 5819SOL     OW17455   1.345   6.002   1.300  0.6292 -0.0529 -0.1391
 5819SOL    HW117456   1.371   5.911   1.293  0.0096 -0.5303  2.5035
 5819SOL    HW217457   1.408   6.050   1.246  1.2490 -1.9745 -1.1951
 5820SOL     OW17458   5.961   5.212   0.014  0.2561 -0.0664 -0.2397
 5820SOL    HW117459   5.977   5.161   0.094  0.4957  1.8654  0.9984
 5820SOL    HW217460   5.870   5.240   0.021  0.7454  1.4948  0.2184
 5821SOL     OW17461   5.715   4.711   4.194 -0.2533 -0.1633  0.5068
 5821SOL    HW117462   5.720   4.787   4.135 -1.7204  1.0619  1.8611
 5821SOL    HW217463   5.758   4.740   4.274 -1.6434 -0.3939  1.3733
 5822SOL     OW17464   1.836   3.746   2.281  0.1807 -0.0768  0.0686
 5822SOL    HW117465   1.766   3.762   2.345  1.0938  1.3026  0.7701
 5822SOL    HW217466   1.911   3.794   2.315  1.3795 -1.1947 -0.8795
 5823SOL     OW17467   3.733   0.321   0.722  0.3738 -0.3127  1.0240
 5823SOL    HW117468   3.724   0.403   0.674 -2.1479 -0.0276  1.8224
 5823SOL    HW217469   3.793   0.341   0.794  0.9779  0.3762  0.3377
 5824SOL     OW17470   2.619   5.476   2.867 -0.3754 -0.2494  0.4990
 5824SOL    HW117471   2.537   5.453   2.824  0.6961 -0.7783 -1.4001
 5824SOL    HW217472   2.647   5.394   2.909  0.3720 -0.7758 -0.9699
 5825SOL     OW17473   5.139   1.936   2.286  0.0475 -0.2618 -0.2401
 5825SOL    HW117474   5.229   1.937   2.320 -0.4326 -0.9473  1.1514
 5825SOL    HW217475   5.096   2.010   2.329 -0.5014 -0.9849  0.4991
 5826SOL     OW17476   5.803   4.905   5.520 -0.3154 -0.3497  0.2373
 5826SOL    HW117477   5.721   4.857   5.531 -0.8379 -0.0687 -1.9618
 5826SOL    HW217478   5.776   4.996   5.504  0.5224  0.0874  1.1824
 5827SOL     OW17479   3.419   5.679   2.125  0.3551 -0.2324 -0.0609
 5827SOL    HW117480   3.395   5.612   2.060  0.2854  1.2370 -1.6352
 5827SOL    HW217481   3.365   5.659   2.201  0.9326 -2.4428 -0.1500
 5828SOL     OW17482   5.505   0.616   4.479  0.4943 -0.1140 -0.4262
 5828SOL    HW117483   5.486   0.678   4.409 -0.0393  2.0987  1.5695
 5828SOL    HW217484   5.595   0.588   4.464  1.9395  3.6573  0.3290
 5829SOL     OW17485   2.996   5.954   1.016 -0.2117 -0.1372 -0.5438
 5829SOL    HW117486   3.085   5.936   1.045  0.1337 -0.3434 -1.6769
 5829SOL    HW217487   2.940   5.903   1.075  0.4185 -0.1408  0.0623
 5830SOL     OW17488   2.613   4.195   1.785  0.0722 -0.0365  0.5180
 5830SOL    HW117489   2.523   4.168   1.804 -0.0504 -0.2673 -0.3359
 5830SOL    HW217490   2.616   4.288   1.808 -1.0389  0.5627 -1.4963
 5831SOL     OW17491   5.109   4.045   0.866 -0.4613  0.0327 -0.0697
 5831SOL    HW117492   5.014   4.051   0.867 -0.4184  1.4521 -1.3784
 5831SOL    HW217493   5.137   4.113   0.805  1.4039 -0.2818  0.3721
 5832SOL     OW17494   5.593   4.002   0.022 -0.1036 -0.4831  0.8027
 5832SOL    HW117495   5.531   4.046  -0.036 -1.2812  0.6775  2.8625
 5832SOL    HW217496   5.551   3.919   0.044  1.1017 -1.7266 -1.2463
 5833SOL     OW17497   5.157   4.474   0.650  0.9187  0.0371 -0.0040
 5833SOL    HW117498   5.097   4.501   0.720  1.8579 -1.4254  1.4370
 5833SOL    HW217499   5.127   4.521   0.573 -2.0046 -0.4992  0.6879
 5834SOL     OW17500   1.540   0.460   2.512  0.1479 -0.5367 -0.2065
 5834SOL    HW117501   1.445   0.465   2.526 -0.2360 -2.1607 -1.8959
 5834SOL    HW217502   1.571   0.548   2.532 -1.6232 -0.1185  0.9470
 5835SOL     OW17503   4.908   2.349   0.206 -0.1753 -0.3791  0.2048
 5835SOL    HW117504   4.816   2.345   0.180 -0.1467 -0.0094  0.0431
 5835SOL    HW217505   4.948   2.407   0.141 -0.0003  0.1371  0.7719
 5836SOL     OW17506   2.107   2.164   3.051  0.1310  0.1188 -0.3877
 5836SOL    HW117507   2.146   2.116   2.977 -1.1108 -0.6683 -0.5647
 5836SOL    HW217508   2.015   2.174   3.027  0.1741  1.8990  0.0361
 5837SOL     OW17509   0.455   0.194   0.117  0.3512  0.5402 -0.0364
 5837SOL    HW117510   0.503   0.166   0.195  0.8841  0.9469 -0.2137
 5837SOL    HW217511   0.514   0.173   0.045 -0.3193 -0.2420 -0.3741
 5838SOL     OW17512   2.872   4.369   0.186 -0.4001  0.9262 -0.3796
 5838SOL    HW117513   2.823   4.443   0.151 -1.5374 -0.4212 -1.8540
 5838SOL    HW217514   2.832   4.351   0.271 -1.1103  1.1251 -0.6634
 5839SOL     OW17515   3.239   4.994   5.604  0.3906  0.2262 -0.5452
 5839SOL    HW117516   3.206   5.071   5.651 -3.9434 -1.6599 -0.0334
 5839SOL    HW217517   3.296   4.951   5.667 -0.2452  1.0588  0.6422
 5840SOL     OW17518   4.081   5.306   0.206 -0.1868 -0.4947  0.3554
 5840SOL    HW117519   4.007   5.343   0.254 -0.2322  0.5857 -0.5081
 5840SOL    HW217520   4.040   5.258   0.134 -0.0793 -1.0729  0.6737
 5841SOL     OW17521   2.966   3.363   0.930 -0.3047  0.1248 -0.2694
 5841SOL    HW117522   2.980   3.457   0.918  1.7164  0.3053  2.6006
 5841SOL    HW217523   3.054   3.325   0.928 -1.0137 -1.6051 -0.4096
 5842SOL     OW17524   2.344   3.102   1.976  0.1415  0.3463  0.2091
 5842SOL    HW117525   2.433   3.077   1.953  0.0308  1.1202 -1.2159
 5842SOL    HW217526   2.292   3.074   1.901 -1.3336 -2.6313  2.1554
 5843SOL     OW17527   5.617   2.933   0.094  0.2907 -0.1851 -0.6507
 5843SOL    HW117528   5.681   2.883   0.042 -0.9717 -0.2514 -2.1987
 5843SOL    HW217529   5.656   3.020   0.102  0.9072 -0.4234 -0.9536
 5844SOL     OW17530   3.960   3.432   0.019  0.5730 -0.7598 -0.0520
 5844SOL    HW117531   3.872   3.422   0.055  0.4909 -0.7302 -0.2434
 5844SOL    HW217532   3.987   3.343  -0.004  0.9557 -0.8911  0.8457
 5845SOL     OW17533   4.506   2.529   3.382  0.0049  0.4336 -1.0057
 5845SOL    HW117534   4.458   2.603   3.419 -0.4274  0.0966 -0.8783
 5845SOL    HW217535   4.499   2.540   3.288 -0.2757  0.4203 -0.9877
 5846SOL     OW17536   4.591   1.325   1.151 -0.5435  0.0587 -0.4327
 5846SOL    HW117537   4.586   1.372   1.067  1.0751 -0.6144 -0.9505
 5846SOL    HW217538   4.597   1.233   1.127 -1.3706 -0.2520  0.4909
 5847SOL     OW17539   5.034   0.022   3.147 -0.3282 -0.4351  0.3408
 5847SOL    HW117540   4.982  -0.031   3.207  2.8254 -2.2272  1.7578
 5847SOL    HW217541   5.038   0.108   3.189  1.2529 -1.4673  2.5467
 5848SOL     OW17542   5.001   4.715   1.010 -0.0846 -0.3966  0.6072
 5848SOL    HW117543   4.968   4.767   1.084  1.1352  0.1492  0.8004
 5848SOL    HW217544   5.096   4.731   1.011 -0.0984  0.0227 -1.3913
 5849SOL     OW17545   3.513   4.631   0.810 -0.2805 -0.0154  0.3583
 5849SOL    HW117546   3.482   4.680   0.734  1.3647  0.2312 -0.1967
 5849SOL    HW217547   3.608   4.641   0.808 -0.1585 -0.3145  2.2488
 5850SOL     OW17548   5.116   0.163   5.718  0.4658 -0.0807 -0.3581
 5850SOL    HW117549   5.173   0.192   5.790  1.2972 -0.1335 -0.9733
 5850SOL    HW217550   5.068   0.088   5.754  0.4986  0.2080  0.2982
 5851SOL     OW17551   3.574   5.948   0.178  0.2343  0.3804 -0.4624
 5851SOL    HW117552   3.646   5.922   0.121  0.3946  1.2410 -0.6689
 5851SOL    HW217553   3.604   5.926   0.266  0.4698  0.1063 -0.6094
 5852SOL     OW17554   3.417   4.280   2.603  0.0288 -0.3648  0.8886
 5852SOL    HW117555   3.510   4.300   2.610  0.0633 -0.7489  1.5227
 5852SOL    HW217556   3.407   4.244   2.515 -0.1666  3.1471 -0.7254
 5853SOL     OW17557   3.808   2.681   1.917 -0.0843  0.0039 -0.3655
 5853SOL    HW117558   3.898   2.677   1.885 -0.3851  0.4762 -1.3074
 5853SOL    HW217559   3.754   2.663   1.840 -0.8234  0.7956 -0.0552
 5854SOL     OW17560   5.421   2.485   5.336 -0.7354  0.0310 -0.3991
 5854SOL    HW117561   5.403   2.418   5.269  0.2039 -2.6268  1.8129
 5854SOL    HW217562   5.472   2.552   5.290  0.5515 -2.0612 -2.2218
 5855SOL     OW17563   3.051   2.378   1.019 -0.6251 -0.2282 -0.5670
 5855SOL    HW117564   3.093   2.361   1.103 -0.5053 -0.2098 -0.6234
 5855SOL    HW217565   2.957   2.382   1.039 -0.8200 -2.3905 -0.7684
 5856SOL     OW17566   1.015   5.427   2.155 -0.5442 -0.4516 -0.2313
 5856SOL    HW117567   0.987   5.507   2.110  1.5678 -0.3686 -1.5598
 5856SOL    HW217568   1.067   5.459   2.229  0.9586 -0.4979 -1.2013
 5857SOL     OW17569   4.049   2.744   4.525 -0.2070  0.7039 -0.2889
 5857SOL    HW117570   4.001   2.777   4.601  0.5903  0.1891  0.4585
 5857SOL    HW217571   4.077   2.657   4.551 -0.0921  0.4455 -1.2588
 5858SOL     OW17572   3.482   0.040   3.392 -0.2546  0.4273  0.1451
 5858SOL    HW117573   3.539   0.102   3.437  0.1104  0.8212 -0.8395
 5858SOL    HW217574   3.448  -0.015   3.462  0.3462  0.9803  0.8992
 5859SOL     OW17575   3.694   1.639   4.221 -0.0630  0.3922 -0.4429
 5859SOL    HW117576   3.754   1.667   4.290  1.3011 -2.3056 -0.4062
 5859SOL    HW217577   3.653   1.560   4.255 -2.2473  1.0907 -1.2700
 5860SOL     OW17578   3.965   2.143   4.695  0.0496 -0.2287 -0.1334
 5860SOL    HW117579   4.057   2.120   4.681  0.1400 -0.1245  0.2690
 5860SOL    HW217580   3.934   2.172   4.610  0.7790  1.0845  0.0294
 5861SOL     OW17581   5.228   4.306   0.443  0.2998 -0.0892 -0.1920
 5861SOL    HW117582   5.135   4.294   0.426  0.2034 -3.1716  1.8231
 5861SOL    HW217583   5.233   4.371   0.513 -0.3258  0.0732 -0.2995
 5862SOL     OW17584   2.902   5.229   1.589  0.1036  0.1836  0.1991
 5862SOL    HW117585   2.808   5.247   1.596  0.0943  0.0207  0.5656
 5862SOL    HW217586   2.906   5.137   1.562  0.1403  0.9193 -2.5092
 5863SOL     OW17587   0.924   1.515   3.580 -0.2650  0.0022 -0.3726
 5863SOL    HW117588   0.904   1.462   3.503  0.3057 -0.4254 -0.2299
 5863SOL    HW217589   0.978   1.586   3.546 -1.5962  0.9127 -0.6845
 5864SOL     OW17590   1.390   4.617   0.756 -0.6034 -0.1592  0.2293
 5864SOL    HW117591   1.442   4.662   0.822 -0.5771  0.5956 -0.3019
 5864SOL    HW217592   1.454   4.571   0.702 -0.4581  0.8782 -0.5070
 5865SOL     OW17593   4.373   2.927   3.695  0.1377  0.4620  0.3349
 5865SOL    HW117594   4.323   2.988   3.641 -0.6725 -1.7172 -1.5153
 5865SOL    HW217595   4.307   2.877   3.743  0.6643 -0.4500  0.1262
 5866SOL     OW17596   5.916   5.971   2.156  0.6592  0.6993 -0.1120
 5866SOL    HW117597   5.897   5.970   2.062 -1.7836 -2.8295  0.2457
 5866SOL    HW217598   5.997   5.921   2.164  1.4073  1.8254 -0.3347
 5867SOL     OW17599   2.399   4.460   5.250  0.4185  0.4084  0.6652
 5867SOL    HW117600   2.442   4.454   5.335  1.3087 -0.0429  0.1883
 5867SOL    HW217601   2.442   4.533   5.205 -0.2296  0.8206  0.6823
 5868SOL     OW17602   3.969   0.687   1.742  0.3045  0.0896  0.1449
 5868SOL    HW117603   3.906   0.682   1.814 -0.0987 -0.6234 -0.2411
 5868SOL    HW217604   3.925   0.643   1.669 -0.0859  2.4711 -1.1497
 5869SOL     OW17605   4.342   4.798   5.818  0.2713 -0.3137 -0.5178
 5869SOL    HW117606   4.269   4.838   5.865 -0.0244 -0.7399 -0.6098
 5869SOL    HW217607   4.404   4.774   5.886  0.6693  0.7399 -0.5038
 5870SOL     OW17608   0.277   4.387   3.193  0.1204 -0.2764 -0.2123
 5870SOL    HW117609   0.245   4.310   3.239 -2.5478  0.0165 -1.4306
 5870SOL    HW217610   0.351   4.354   3.141  0.7665 -1.3728  1.3217
 5871SOL     OW17611   4.401   0.705   1.783  0.0404 -0.0919  0.2006
 5871SOL    HW117612   4.486   0.700   1.741 -0.5213 -0.6906 -0.9157
 5871SOL    HW217613   4.408   0.778   1.844  0.7376  1.1459 -1.3126
 5872SOL     OW17614   1.487   1.072   1.729 -0.4027  0.2958  0.1449
 5872SOL    HW117615   1.566   1.038   1.771 -0.6481 -1.2561 -0.5810
 5872SOL    HW217616   1.490   1.036   1.640 -1.1496  1.4944 -0.3898
 5873SOL     OW17617   3.522   0.463   2.477 -0.2089  0.3384  0.6313
 5873SOL    HW117618   3.430   0.481   2.495  0.0359  1.4351  0.8808
 5873SOL    HW217619   3.568   0.542   2.506  0.8506 -0.3382  0.8553
 5874SOL     OW17620   4.290   4.420   1.627  0.0506 -0.1817 -0.3956
 5874SOL    HW117621   4.338   4.338   1.614  2.0177  1.0690 -1.6721
 5874SOL    HW217622   4.201   4.401   1.599  0.3088 -2.0393 -0.0646
 5875SOL     OW17623   3.802   0.551   4.142 -1.0062  0.3504 -0.7424
 5875SOL    HW117624   3.738   0.551   4.214  0.8192 -1.8201  1.0479
 5875SOL    HW217625   3.810   0.459   4.117  0.5754  0.7138 -1.7113
 5876SOL     OW17626   4.948   1.986   5.904  0.2081  0.6222  0.5422
 5876SOL    HW117627   4.884   1.944   5.962  0.4266 -0.6280 -0.0853
 5876SOL    HW217628   4.896   2.018   5.830  0.3446 -1.1547 -0.3932
 5877SOL     OW17629   3.732   4.004   1.251 -0.5101  0.3417  0.1889
 5877SOL    HW117630   3.803   4.063   1.227 -0.9139  0.6006 -0.3773
 5877SOL    HW217631   3.757   3.971   1.338  1.7366 -1.8151 -1.1688
 5878SOL     OW17632   5.969   2.670   1.100  0.7430  0.4942  0.7012
 5878SOL    HW117633   5.884   2.643   1.134  0.0447  1.3271 -0.3362
 5878SOL    HW217634   5.964   2.766   1.098  1.2954  0.5098 -0.3939
 5879SOL     OW17635   2.983   4.307   1.915 -0.4784  0.4942 -0.1504
 5879SOL    HW117636   3.029   4.391   1.913 -0.0318  0.2448 -0.9264
 5879SOL    HW217637   2.986   4.276   1.825  1.2931 -1.3786  0.4711
 5880SOL     OW17638   4.935   5.339   4.088  0.2620  0.2895  0.5537
 5880SOL    HW117639   4.982   5.409   4.134  1.7300 -0.6163  0.4896
 5880SOL    HW217640   4.879   5.300   4.154 -2.3464  2.9041  0.1086
 5881SOL     OW17641   1.489   4.782   5.365 -0.0630 -0.5141 -0.5691
 5881SOL    HW117642   1.449   4.829   5.292  0.8827  1.0138 -0.1433
 5881SOL    HW217643   1.550   4.844   5.404 -0.1445 -1.4654  1.2077
 5882SOL     OW17644   0.732   4.416   1.844 -0.7373 -0.1425  0.0190
 5882SOL    HW117645   0.743   4.326   1.814  2.1246  0.3446 -0.6742
 5882SOL    HW217646   0.767   4.470   1.772 -2.6752  1.5797  0.2708
 5883SOL     OW17647   5.926   3.688   2.921 -0.3847 -0.3587  0.1884
 5883SOL    HW117648   5.852   3.629   2.936 -0.2578 -0.1447  1.8108
 5883SOL    HW217649   5.915   3.758   2.984 -0.7109  1.6055 -1.9039
 5884SOL     OW17650   4.682   0.799   1.130 -0.2021 -0.1865 -0.0872
 5884SOL    HW117651   4.720   0.720   1.091 -1.3176 -0.6538 -0.2768
 5884SOL    HW217652   4.588   0.787   1.119 -0.4345  0.6479  0.9149
 5885SOL     OW17653   2.710   4.335   4.775 -0.3224 -0.3159  0.2294
 5885SOL    HW117654   2.774   4.286   4.723  1.3160  0.5346  1.3410
 5885SOL    HW217655   2.758   4.412   4.807 -0.7782 -1.3399  3.9512
 5886SOL     OW17656   1.368   4.373   0.054 -0.3326  0.1428  0.0667
 5886SOL    HW117657   1.323   4.369   0.139 -0.2905  0.5590  0.1073
 5886SOL    HW217658   1.414   4.457   0.055  0.0613 -0.0674 -0.1721
 5887SOL     OW17659   2.987   5.082   5.004 -0.1307  0.1229  0.2335
 5887SOL    HW117660   3.030   5.166   4.986  0.2750 -0.0932  0.2026
 5887SOL    HW217661   3.037   5.018   4.954 -1.3346  0.0544 -0.9767
 5888SOL     OW17662   5.587   6.025   3.084  0.2327 -0.2024  0.1710
 5888SOL    HW117663   5.600   5.933   3.060 -0.7217  0.0365 -1.3970
 5888SOL    HW217664   5.503   6.027   3.128  0.2579 -0.0865  0.2148
 5889SOL     OW17665   4.447   1.418   2.359 -0.4146 -0.2704  0.5807
 5889SOL    HW117666   4.457   1.398   2.452 -0.6328 -0.9187  0.4721
 5889SOL    HW217667   4.537   1.425   2.326 -0.3323 -0.9232  0.6615
 5890SOL     OW17668   0.521   4.295   2.027 -0.2013 -0.0240 -0.0425
 5890SOL    HW117669   0.507   4.304   1.933 -2.7746  1.6422  0.4145
 5890SOL    HW217670   0.567   4.375   2.053  0.9010 -0.6784  0.0979
 5891SOL     OW17671   3.497   2.806   3.254 -0.1077  0.1346  0.4991
 5891SOL    HW117672   3.545   2.821   3.172  1.0045  0.7868  1.2392
 5891SOL    HW217673   3.433   2.738   3.232  0.1302  0.3263 -0.9173
 5892SOL     OW17674   1.880   2.286   0.765 -0.4319  0.6505  0.2548
 5892SOL    HW117675   1.785   2.297   0.764 -0.5705 -0.4520 -0.7297
 5892SOL    HW217676   1.898   2.246   0.850 -1.2560 -2.0599 -0.7464
 5893SOL     OW17677   2.067   3.855   2.376 -0.6051  0.4165  0.2029
 5893SOL    HW117678   2.152   3.812   2.382 -1.5633 -1.9861 -1.7035
 5893SOL    HW217679   2.081   3.941   2.415  2.1009 -0.6818  1.9823
 5894SOL     OW17680   0.082   3.474   0.484  0.3503  0.3560 -0.2340
 5894SOL    HW117681   0.013   3.513   0.537  0.6031  0.7498 -0.1895
 5894SOL    HW217682   0.130   3.418   0.544 -0.4251 -0.5681 -0.4502
 5895SOL     OW17683   3.520   4.248   5.650  0.2834 -0.3547  0.0296
 5895SOL    HW117684   3.601   4.230   5.602  0.2712 -0.8734  0.2021
 5895SOL    HW217685   3.541   4.232   5.741 -0.2521 -1.3680 -0.0118
 5896SOL     OW17686   4.841   5.763   2.488 -0.3127  0.5839  0.5358
 5896SOL    HW117687   4.796   5.743   2.570  0.9276  0.9504  1.3487
 5896SOL    HW217688   4.844   5.680   2.441 -0.5934  0.2482  1.1062
 5897SOL     OW17689   0.875   3.782   0.079 -0.4760 -0.1013 -0.9729
 5897SOL    HW117690   0.848   3.697   0.046 -1.0463 -0.6901  0.8702
 5897SOL    HW217691   0.796   3.818   0.119  0.2135  0.4524 -0.0764
 5898SOL     OW17692   4.231   4.582   1.980  0.0650 -0.1712  0.0143
 5898SOL    HW117693   4.263   4.570   2.070  1.3132  1.0406 -0.2332
 5898SOL    HW217694   4.158   4.521   1.972 -1.2471  0.9455  2.4326
 5899SOL     OW17695   5.122   4.616   5.887 -0.6404  0.1915  0.0516
 5899SOL    HW117696   5.075   4.603   5.970 -0.2621  2.0298  0.5901
 5899SOL    HW217697   5.212   4.590   5.907 -0.4969  0.8675  0.2934
 5900SOL     OW17698   5.043   1.363   1.951 -0.1025  0.2137 -0.2289
 5900SOL    HW117699   5.082   1.292   2.003 -0.4990  1.0315  1.2470
 5900SOL    HW217700   5.117   1.421   1.930 -0.0599  0.2777  0.0964
 5901SOL     OW17701   0.779   4.095   0.152 -0.1120 -0.5983  0.2508
 5901SOL    HW117702   0.781   4.174   0.205 -0.8281 -0.6228  0.3230
 5901SOL    HW217703   0.715   4.039   0.195 -1.5653 -0.1713 -1.2686
 5902SOL     OW17704   4.168   4.166   2.028 -0.0367 -0.1543 -0.5615
 5902SOL    HW117705   4.102   4.223   1.986 -0.2183 -1.1183 -1.6446
 5902SOL    HW217706   4.120   4.085   2.047  0.7064 -0.6935 -0.9389
 5903SOL     OW17707   2.883   3.063   1.489  0.1803 -0.2081 -0.2932
 5903SOL    HW117708   2.887   3.027   1.578 -0.1582  0.4483  0.0004
 5903SOL    HW217709   2.935   3.003   1.436 -1.5777 -1.9708 -0.1329
 5904SOL     OW17710   5.360   3.775   5.800  0.2013  0.3122 -0.4237
 5904SOL    HW117711   5.434   3.739   5.847 -0.0099  2.1163  1.4190
 5904SOL    HW217712   5.398   3.811   5.720  0.7777 -1.5489 -1.0422
 5905SOL     OW17713   2.422   1.898   3.303 -0.7362 -0.1749 -0.2212
 5905SOL    HW117714   2.441   1.889   3.397 -0.8014  1.6132  0.0138
 5905SOL    HW217715   2.342   1.951   3.300  0.4453  1.6698 -1.2610
 5906SOL     OW17716   4.826   4.955   2.674 -0.1520  0.5628 -0.5332
 5906SOL    HW117717   4.775   4.914   2.605 -0.0303  1.2755 -1.0578
 5906SOL    HW217718   4.797   5.046   2.675  2.5242  1.5821 -2.3132
 5907SOL     OW17719   4.587   4.151   0.459  0.1973  0.1616 -0.2380
 5907SOL    HW117720   4.556   4.189   0.541  1.4837  2.3651 -0.6877
 5907SOL    HW217721   4.618   4.064   0.483 -1.8921 -0.2831  1.0683
 5908SOL     OW17722   3.268   3.610   2.594 -0.2972  0.1902  0.1230
 5908SOL    HW117723   3.273   3.609   2.689 -1.1505 -0.1793  0.1718
 5908SOL    HW217724   3.320   3.687   2.568 -2.7152  2.2723  1.0814
 5909SOL     OW17725   4.475   1.846   3.462 -0.2187  0.6689 -0.5146
 5909SOL    HW117726   4.493   1.783   3.392  0.8329 -0.0661  0.3828
 5909SOL    HW217727   4.533   1.920   3.444  0.5823  0.1685 -0.0321
 5910SOL     OW17728   3.357   5.359   1.329  0.2411 -0.2236  0.0802
 5910SOL    HW117729   3.342   5.422   1.259 -0.7868 -3.9668 -3.4450
 5910SOL    HW217730   3.452   5.359   1.341  0.2510  2.1442  0.5047
 5911SOL     OW17731   3.751   4.576   5.143 -0.8737  0.0375 -0.2028
 5911SOL    HW117732   3.795   4.520   5.207  0.6181 -0.4491 -1.5852
 5911SOL    HW217733   3.689   4.518   5.099 -0.3647 -0.1891 -0.6386
 5912SOL     OW17734   2.918   2.498   2.111 -0.2145 -0.0202  0.3217
 5912SOL    HW117735   2.828   2.502   2.143  0.4355 -0.7749  2.3648
 5912SOL    HW217736   2.956   2.583   2.134 -0.7681  0.9102 -1.9107
 5913SOL     OW17737   2.237   4.967   0.716 -0.5616 -0.4778 -0.2513
 5913SOL    HW117738   2.196   4.886   0.685 -1.0180  0.0796 -1.1830
 5913SOL    HW217739   2.236   4.960   0.811 -1.2251 -1.2625 -0.3018
 5914SOL     OW17740   4.590   4.292   2.264 -0.3791 -0.3115 -0.0109
 5914SOL    HW117741   4.657   4.318   2.327  0.8387 -0.1203 -1.3479
 5914SOL    HW217742   4.561   4.206   2.295  2.4614 -1.6972 -0.8624
 5915SOL     OW17743   4.135   0.083   4.342  0.4086 -0.4764  0.1971
 5915SOL    HW117744   4.195   0.037   4.283  0.8917 -1.2129  1.2361
 5915SOL    HW217745   4.152   0.045   4.428  1.3928  2.1656  1.2782
 5916SOL     OW17746   4.000   4.874   0.875 -0.0823  0.4080 -0.1483
 5916SOL    HW117747   4.090   4.905   0.872  0.5541 -1.3277 -0.0192
 5916SOL    HW217748   3.976   4.881   0.968  0.6759 -1.1149  0.1807
 5917SOL     OW17749   5.490   4.863   3.361  0.1129  0.0027 -0.3239
 5917SOL    HW117750   5.438   4.822   3.292  0.7852 -0.3128 -0.6553
 5917SOL    HW217751   5.492   4.799   3.431 -0.9786  0.5223  0.1904
 5918SOL     OW17752   3.161   0.293   2.533 -0.2564  0.3696  0.3401
 5918SOL    HW117753   3.163   0.208   2.487 -1.3585  0.2024  0.5735
 5918SOL    HW217754   3.164   0.270   2.626  1.8433  0.7055  0.4049
 5919SOL     OW17755   3.334   2.557   3.183  0.1612  0.5942  0.6670
 5919SOL    HW117756   3.276   2.611   3.128  0.7823  2.1463  1.4848
 5919SOL    HW217757   3.304   2.573   3.272  0.8332  0.1352  0.9799
 5920SOL     OW17758   5.604   4.554   1.662 -0.2647  0.2957  0.7354
 5920SOL    HW117759   5.525   4.560   1.608  1.0329  0.2255 -1.2543
 5920SOL    HW217760   5.599   4.631   1.720 -1.7899  0.2662  0.6742
 5921SOL     OW17761   4.447   5.359   0.540  0.3468  0.7116 -0.0125
 5921SOL    HW117762   4.468   5.328   0.452  1.5645  2.2642 -0.3098
 5921SOL    HW217763   4.352   5.351   0.546  0.3933 -0.8519 -0.8817
 5922SOL     OW17764   4.353   4.434   2.540 -0.4294 -0.3635 -0.2197
 5922SOL    HW117765   4.432   4.408   2.588 -0.9763 -0.4033  0.6693
 5922SOL    HW217766   4.384   4.502   2.480  0.2646 -0.2996  0.1934
 5923SOL     OW17767   3.822   4.170   2.406 -0.1131  0.3449 -0.6883
 5923SOL    HW117768   3.835   4.193   2.314  2.5053  0.6610 -0.2959
 5923SOL    HW217769   3.885   4.100   2.423 -0.6317  0.2116  0.8510
 5924SOL     OW17770   5.326   4.487   0.040  0.1451 -0.1243  0.1754
 5924SOL    HW117771   5.275   4.439   0.106  0.4504 -0.5056  0.1370
 5924SOL    HW217772   5.333   4.427  -0.034  1.0446 -0.2606  0.3576
 5925SOL     OW17773   5.063   0.334   0.985 -0.0599 -0.1597  0.4275
 5925SOL    HW117774   5.032   0.244   0.986 -1.7205  0.3288 -0.9780
 5925SOL    HW217775   5.060   0.359   0.893 -0.1272  1.4735  0.8407
 5926SOL     OW17776   5.363   3.804   3.933  0.0619  0.5187 -0.3477
 5926SOL    HW117777   5.288   3.860   3.916 -2.1290 -1.8418  0.8945
 5926SOL    HW217778   5.396   3.834   4.018  0.1304  1.1149 -0.5782
 5927SOL     OW17779   4.071   4.612   1.120 -0.7350 -0.1983  0.0132
 5927SOL    HW117780   4.015   4.569   1.055 -0.6896  1.2586 -1.0435
 5927SOL    HW217781   4.044   4.575   1.204 -1.7547 -1.1244 -0.6997
 5928SOL     OW17782   6.011   3.102   4.613 -0.0356  0.2035  0.0245
 5928SOL    HW117783   5.999   3.111   4.707 -0.7210 -0.5886  0.0188
 5928SOL    HW217784   5.924   3.082   4.579  0.2431  0.2767 -0.7475
 5929SOL     OW17785   5.702   3.003   4.598 -0.4895  0.3782 -0.3509
 5929SOL    HW117786   5.747   2.925   4.630  0.2261  0.5831 -0.8313
 5929SOL    HW217787   5.624   3.010   4.654 -0.7945 -0.9087 -0.5740
 5930SOL     OW17788   5.688   3.466   4.435  0.0580 -0.1632 -0.4758
 5930SOL    HW117789   5.673   3.437   4.525 -0.6194 -0.2163 -0.6049
 5930SOL    HW217790   5.602   3.493   4.403  0.7800  3.2690  0.0723
 5931SOL     OW17791   2.458   1.094   1.781  0.1127 -0.5202 -0.0449
 5931SOL    HW117792   2.431   1.185   1.774  0.7332  0.0213  3.2621
 5931SOL    HW217793   2.547   1.093   1.747 -0.1424 -0.0652 -0.7494
 5932SOL     OW17794   3.071   5.177   2.234  0.0825 -0.0443 -0.3928
 5932SOL    HW117795   3.065   5.132   2.149 -0.3919 -0.6431 -0.0491
 5932SOL    HW217796   3.152   5.227   2.229  0.3444 -0.5218 -0.9919
 5933SOL     OW17797   4.969   0.841   5.345 -0.3040 -0.1189 -0.6374
 5933SOL    HW117798   5.024   0.829   5.422  0.3289  0.9832 -0.8929
 5933SOL    HW217799   4.905   0.771   5.350  0.9106 -1.2360 -0.1504
 5934SOL     OW17800   2.505   0.263   0.701 -0.4519  0.1916  0.3445
 5934SOL    HW117801   2.469   0.349   0.676  1.8188  1.7861  2.1054
 5934SOL    HW217802   2.575   0.247   0.638 -2.0428 -1.3593 -1.1248
 5935SOL     OW17803   0.909   5.871   0.956 -0.0811  0.3720 -0.4517
 5935SOL    HW117804   0.879   5.850   1.044  3.8996 -3.5080  0.3055
 5935SOL    HW217805   0.988   5.922   0.969  1.5665 -1.7527 -1.5542
 5936SOL     OW17806   4.075   5.100   1.575  0.3487  0.2595 -0.0983
 5936SOL    HW117807   4.039   5.097   1.664 -0.0463 -1.4491 -0.2749
 5936SOL    HW217808   4.147   5.162   1.580  0.5920 -0.1191  1.5220
 5937SOL     OW17809   4.485   1.490   2.630  0.4449 -0.4310 -0.9261
 5937SOL    HW117810   4.561   1.442   2.661 -0.0449 -0.5462  0.1576
 5937SOL    HW217811   4.518   1.578   2.612  1.3593 -1.1300 -3.0068
 5938SOL     OW17812   0.161   4.768   5.533 -0.3367  0.4513 -0.4418
 5938SOL    HW117813   0.124   4.762   5.621  0.6430 -1.0074 -0.0986
 5938SOL    HW217814   0.252   4.792   5.547  0.8763 -3.3371 -0.7133
 5939SOL     OW17815   5.275   5.570   0.405 -0.2768  0.4458 -0.0030
 5939SOL    HW117816   5.218   5.514   0.353 -0.1642  0.1790  0.1553
 5939SOL    HW217817   5.363   5.551   0.373  0.1304 -1.8104  2.0879
 5940SOL     OW17818   4.023   5.131   1.234 -0.0980  0.4030 -0.4857
 5940SOL    HW117819   4.017   5.038   1.255  0.8134  0.4484  0.0460
 5940SOL    HW217820   4.009   5.175   1.318  2.3834  0.6302 -0.0863
 5941SOL     OW17821   5.082   4.655   0.445  0.4264 -0.5181 -0.4419
 5941SOL    HW117822   5.061   4.727   0.385  1.0884 -0.3967 -0.5362
 5941SOL    HW217823   5.155   4.688   0.498  0.5138 -0.9960 -0.2546
 5942SOL     OW17824   0.260   4.911   2.485  0.0585  0.2048 -0.1466
 5942SOL    HW117825   0.207   4.841   2.523  2.4104 -0.6609  1.7830
 5942SOL    HW217826   0.232   4.990   2.533 -1.5389  0.3926 -1.2902
 5943SOL     OW17827   1.920   5.312   1.703 -0.3326  0.4505  0.4824
 5943SOL    HW117828   1.908   5.272   1.616  0.5488 -1.4599  1.1921
 5943SOL    HW217829   1.966   5.394   1.685 -0.2227  0.1162 -0.8786
 5944SOL     OW17830   5.537   5.503   0.302  0.0678  0.3371  0.5500
 5944SOL    HW117831   5.571   5.563   0.236  0.2775  0.8987  1.1620
 5944SOL    HW217832   5.616   5.465   0.343 -0.0537 -0.8733 -0.2824
 5945SOL     OW17833   5.035   5.041   4.987  0.1042  0.0684 -0.3995
 5945SOL    HW117834   5.089   5.119   5.004  1.1486 -0.2437 -2.0069
 5945SOL    HW217835   4.958   5.076   4.941 -0.2461  0.3207  0.3600
 5946SOL     OW17836   4.275   1.444   4.723  0.1827  0.3102 -0.5475
 5946SOL    HW117837   4.298   1.370   4.780 -0.9780  0.7817  0.5839
 5946SOL    HW217838   4.225   1.405   4.652  0.7630 -0.1545 -0.7141
 5947SOL     OW17839   3.980   5.474   3.166 -0.1864 -0.4283 -0.0558
 5947SOL    HW117840   4.029   5.527   3.103  0.7835  0.4027  1.3602
 5947SOL    HW217841   3.891   5.509   3.162  0.0184  0.0568 -0.4929
 5948SOL     OW17842   4.168   1.343   5.484  0.3878  0.1819 -0.2524
 5948SOL    HW117843   4.176   1.386   5.569  0.9629  1.1694 -0.7890
 5948SOL    HW217844   4.080   1.306   5.484 -0.2781  1.7141  0.0696
 5949SOL     OW17845   2.076   0.296   5.467  0.1921 -0.0607 -0.1461
 5949SOL    HW117846   1.989   0.318   5.502  0.6889  1.1417  0.3772
 5949SOL    HW217847   2.136   0.350   5.517  1.0245  0.9598 -2.1618
 5950SOL     OW17848   2.274   5.457   0.201  0.4036  0.1708  0.4202
 5950SOL    HW117849   2.278   5.458   0.297 -1.2063  0.9732  0.5105
 5950SOL    HW217850   2.316   5.539   0.175 -0.1958  0.5104  0.5072
 5951SOL     OW17851   2.816   0.316   3.795  0.0145 -0.2069  0.4310
 5951SOL    HW117852   2.750   0.248   3.795 -2.1691  1.7897  0.0930
 5951SOL    HW217853   2.815   0.351   3.706  0.3601  0.9354  0.8544
 5952SOL     OW17854   0.094   5.741   2.109 -0.4706  0.6294  0.3410
 5952SOL    HW117855   0.044   5.731   2.029  1.0428 -1.1737 -0.4549
 5952SOL    HW217856   0.081   5.659   2.156  0.4693  0.7595  0.8534
 5953SOL     OW17857   4.969   4.246   0.382  0.5103 -0.3911 -1.2618
 5953SOL    HW117858   4.930   4.227   0.297  0.3881 -0.9078 -1.0927
 5953SOL    HW217859   4.918   4.320   0.415 -0.8498 -1.5305 -0.7188
 5954SOL     OW17860   4.749   5.818   3.691 -0.4161  0.0862 -0.0655
 5954SOL    HW117861   4.677   5.865   3.647 -0.0523 -1.1306 -2.0649
 5954SOL    HW217862   4.825   5.874   3.678  0.5157 -1.7813 -4.3794
 5955SOL     OW17863   3.421   4.602   5.053 -0.4013 -0.4696 -0.3108
 5955SOL    HW117864   3.461   4.688   5.061  0.5191 -0.9917  1.1301
 5955SOL    HW217865   3.388   4.583   5.141 -0.9369 -1.4321 -0.7006
 5956SOL     OW17866   5.718   1.579   5.957 -0.0936 -0.3610 -0.3422
 5956SOL    HW117867   5.743   1.594   6.047  1.0036  0.0766 -0.7100
 5956SOL    HW217868   5.679   1.662   5.928 -0.2759 -0.4406 -0.3261
 5957SOL     OW17869   3.919   0.889   2.135  0.1872 -0.0719  0.2422
 5957SOL    HW117870   3.997   0.880   2.190  0.5550 -1.0685 -0.4169
 5957SOL    HW217871   3.913   0.806   2.088 -1.9095 -0.4646  1.0794
 5958SOL     OW17872   2.516   2.923   3.161  0.2763 -0.4294  0.6340
 5958SOL    HW117873   2.540   2.946   3.251  0.1606  0.3041  0.4850
 5958SOL    HW217874   2.598   2.896   3.120  0.7493  1.3650  0.3324
 5959SOL     OW17875   3.775   3.542   3.295 -0.3928 -0.4991 -0.0330
 5959SOL    HW117876   3.782   3.569   3.203  0.3556 -1.1986 -0.1842
 5959SOL    HW217877   3.705   3.598   3.330  0.6631  1.1998 -0.4958
 5960SOL     OW17878   3.803   5.589   5.120 -0.1029 -0.4751  0.1615
 5960SOL    HW117879   3.829   5.656   5.056  0.2477 -0.7303  0.0335
 5960SOL    HW217880   3.880   5.532   5.127 -0.6881 -1.3562 -0.3701
 5961SOL     OW17881   4.771   2.019   2.855 -0.6129  0.4081 -0.9376
 5961SOL    HW117882   4.715   1.941   2.858  0.7544 -0.5987  2.6039
 5961SOL    HW217883   4.710   2.092   2.862 -1.7292 -0.4393 -1.4588
 5962SOL     OW17884   3.363   0.828   0.109  0.1745  0.2214 -0.6592
 5962SOL    HW117885   3.444   0.850   0.062  1.1617 -1.4490  0.1420
 5962SOL    HW217886   3.385   0.748   0.156 -0.7071  1.8160  2.7493
 5963SOL     OW17887   4.447   5.924   0.582  0.5228  0.1614  0.0196
 5963SOL    HW117888   4.468   5.837   0.616 -2.2565  0.1207  1.9350
 5963SOL    HW217889   4.451   5.981   0.658  1.2164  1.5470 -1.0134
 5964SOL     OW17890   0.013   5.337   1.789 -0.7326 -0.1350 -0.5353
 5964SOL    HW117891  -0.015   5.281   1.716 -0.8188 -0.8687  0.0528
 5964SOL    HW217892   0.108   5.341   1.781 -0.8925  2.5102 -2.6472
 5965SOL     OW17893   2.662   4.409   2.338  0.3037 -0.9713  0.5300
 5965SOL    HW117894   2.602   4.342   2.305  0.4107 -0.6007 -0.4625
 5965SOL    HW217895   2.734   4.409   2.275 -0.4927  1.2334 -0.4791
 5966SOL     OW17896   3.542   3.789   1.487  0.6109  0.3355  0.4294
 5966SOL    HW117897   3.614   3.851   1.502 -1.0197  1.9866  1.8179
 5966SOL    HW217898   3.553   3.724   1.556  0.4641  0.8943  0.9895
 5967SOL     OW17899   4.219   5.087   1.843 -0.2533  0.2582 -0.5771
 5967SOL    HW117900   4.267   5.007   1.821 -0.1215  0.5493 -1.3736
 5967SOL    HW217901   4.287   5.154   1.852 -0.3369  0.2407  0.3567
 5968SOL     OW17902   3.747   5.178   1.267 -0.1291 -0.4661 -0.1843
 5968SOL    HW117903   3.704   5.116   1.208  0.0156 -1.1057  0.3754
 5968SOL    HW217904   3.832   5.194   1.227  0.0964 -1.1481  0.0132
 5969SOL     OW17905   4.473   0.211   5.000  0.4123 -0.2843 -0.1664
 5969SOL    HW117906   4.450   0.288   4.947  2.2225  0.9247  0.7054
 5969SOL    HW217907   4.456   0.238   5.090  2.6193 -0.2448  0.2865
 5970SOL     OW17908   5.722   0.023   1.679 -0.3725  0.2557  0.6080
 5970SOL    HW117909   5.639   0.018   1.726 -0.1925 -0.7823  0.8311
 5970SOL    HW217910   5.709  -0.029   1.600  0.9206 -2.3281  1.9967
 5971SOL     OW17911   0.605   0.475   1.711 -0.4565 -0.7078  0.0789
 5971SOL    HW117912   0.523   0.457   1.666 -1.0623  0.6926  0.5634
 5971SOL    HW217913   0.581   0.485   1.803  0.3925 -1.1422  0.3557
 5972SOL     OW17914   3.366   4.712   0.570  0.5802  0.3937 -0.4700
 5972SOL    HW117915   3.391   4.763   0.493  1.1244  1.9065  0.6463
 5972SOL    HW217916   3.324   4.775   0.628 -0.0244 -0.7565  0.3811
 5973SOL     OW17917   4.841   1.152   0.608  0.0668  0.5364 -0.3386
 5973SOL    HW117918   4.875   1.217   0.546  1.4126  0.4272  0.2437
 5973SOL    HW217919   4.883   1.175   0.691 -0.5003 -0.2637  0.1776
 5974SOL     OW17920   4.588   4.248   1.828  0.0701 -0.1650  0.7202
 5974SOL    HW117921   4.529   4.239   1.753  0.0462 -0.4077  0.7662
 5974SOL    HW217922   4.675   4.233   1.792 -0.1039 -2.3415  1.0952
 5975SOL     OW17923   3.990   5.444   1.164 -0.1899 -0.4521  0.4441
 5975SOL    HW117924   4.005   5.456   1.258  0.6476  0.1844  0.2387
 5975SOL    HW217925   4.049   5.372   1.140  0.7550  0.4213  0.1108
 5976SOL     OW17926   0.673   0.504   2.214 -0.3500 -0.0957  0.2652
 5976SOL    HW117927   0.635   0.576   2.264  0.4134  1.1449 -0.8688
 5976SOL    HW217928   0.765   0.502   2.242 -0.6586 -1.5505  1.2844
 5977SOL     OW17929   5.158   3.480   1.671 -0.5127 -0.0720  0.4359
 5977SOL    HW117930   5.138   3.403   1.617 -0.2688 -0.3750  0.7776
 5977SOL    HW217931   5.089   3.482   1.737  0.6134 -1.1821  1.6840
 5978SOL     OW17932   3.459   1.688   5.091 -0.4341 -0.0435  0.1960
 5978SOL    HW117933   3.437   1.757   5.029 -1.4579 -0.4125  0.1296
 5978SOL    HW217934   3.554   1.694   5.101 -0.2544  0.0988 -1.3281
 5979SOL     OW17935   0.475   4.016   2.086 -0.4771 -0.6467  0.7874
 5979SOL    HW117936   0.383   4.025   2.111 -0.2402  1.5323  1.0795
 5979SOL    HW217937   0.501   4.104   2.059  1.2771 -1.4268 -0.2007
 5980SOL     OW17938   3.725   0.149   5.243  0.4158 -0.0314 -0.0813
 5980SOL    HW117939   3.776   0.224   5.212  0.3812 -0.6507 -1.7429
 5980SOL    HW217940   3.790   0.079   5.252  0.2491 -0.1445  0.2745
 5981SOL     OW17941   4.671   0.145   1.940  0.3567 -0.2879  0.5001
 5981SOL    HW117942   4.734   0.203   1.981  1.6146 -2.0332  1.1677
 5981SOL    HW217943   4.644   0.191   1.861  1.1373  1.2635  1.0955
 5982SOL     OW17944   5.645   0.494   2.460  0.3740  0.0725  0.1935
 5982SOL    HW117945   5.619   0.403   2.448  2.1044 -0.3141 -1.0386
 5982SOL    HW217946   5.620   0.515   2.550 -1.4816 -1.0954  0.0019
 5983SOL     OW17947   0.277   3.028   5.288  0.2901 -0.0701  0.2260
 5983SOL    HW117948   0.246   3.104   5.337  0.2712  1.2719 -1.7643
 5983SOL    HW217949   0.366   3.050   5.262  0.4881 -0.9813  0.0861
 5984SOL     OW17950   4.369   1.577   3.020 -0.1107  0.2804  0.0106
 5984SOL    HW117951   4.327   1.528   2.950  0.2375 -1.5765  1.0221
 5984SOL    HW217952   4.338   1.535   3.100  0.1851  1.7697  0.9451
 5985SOL     OW17953   5.377   4.958   0.731 -0.4363  0.2998  0.1450
 5985SOL    HW117954   5.322   4.975   0.808 -1.9711  1.5746 -1.1790
 5985SOL    HW217955   5.405   5.045   0.702 -0.6358 -0.0814 -1.2653
 5986SOL     OW17956   3.615   2.679   3.594 -0.2421  0.9386 -0.2895
 5986SOL    HW117957   3.593   2.665   3.686 -1.4365  1.9780 -0.3772
 5986SOL    HW217958   3.707   2.706   3.594  0.4099 -1.1357  0.3634
 5987SOL     OW17959   4.848   4.579   3.895  0.0305 -0.0299 -0.4220
 5987SOL    HW117960   4.926   4.562   3.947 -0.1260  0.2731 -0.0877
 5987SOL    HW217961   4.873   4.553   3.806  0.5762  0.2510 -0.3535
 5988SOL     OW17962   2.344   1.420   3.075  0.0590  0.1656  0.2028
 5988SOL    HW117963   2.409   1.384   3.015 -1.4683  0.4314 -1.7100
 5988SOL    HW217964   2.310   1.498   3.031 -3.2731 -1.2780 -0.1445
 5989SOL     OW17965   1.847   3.802   3.891  0.1837  0.5111  0.0583
 5989SOL    HW117966   1.904   3.760   3.826 -1.3897  0.3684 -1.2901
 5989SOL    HW217967   1.830   3.889   3.855 -1.4427  0.1037 -0.2166
 5990SOL     OW17968   5.070   4.919   2.488 -0.2604 -0.2704 -0.4422
 5990SOL    HW117969   5.092   4.826   2.494 -0.8736 -0.3970 -0.0779
 5990SOL    HW217970   5.026   4.938   2.570  1.6488  0.8396  0.3724
 5991SOL     OW17971   5.539   3.721   3.499 -0.0786 -0.0223 -0.1175
 5991SOL    HW117972   5.466   3.739   3.440 -1.9944 -0.9472  1.8532
 5991SOL    HW217973   5.535   3.790   3.565  0.9960  0.0365 -0.0888
 5992SOL     OW17974   0.435   5.208   3.412 -0.3618  0.2159 -0.2163
 5992SOL    HW117975   0.382   5.265   3.468  0.1687 -0.0865  0.6232
 5992SOL    HW217976   0.433   5.249   3.326 -0.3612  1.2626  0.2693
 5993SOL     OW17977   3.907   5.942   4.447 -0.0753  0.1026  0.1639
 5993SOL    HW117978   3.880   6.015   4.503 -1.2885 -0.6526  0.5738
 5993SOL    HW217979   3.924   5.983   4.362 -0.6510  0.8841  0.4125
 5994SOL     OW17980   0.078   2.146   4.377  0.0829  0.3091 -0.3916
 5994SOL    HW117981   0.133   2.208   4.329  1.8150 -0.8787 -0.0430
 5994SOL    HW217982   0.112   2.060   4.354 -0.3119 -0.3914  1.4104
 5995SOL     OW17983   3.131   4.447   3.024 -0.2695 -0.4298  0.5071
 5995SOL    HW117984   3.194   4.391   3.071  0.5490  1.1694  1.3950
 5995SOL    HW217985   3.186   4.505   2.972 -1.0237  0.8263  1.0880
 5996SOL     OW17986   3.285   5.310   2.891  0.2549 -0.5220  0.6891
 5996SOL    HW117987   3.244   5.230   2.856 -0.2838 -0.2689  0.7443
 5996SOL    HW217988   3.281   5.372   2.819 -1.9898  0.4165  1.5609
 5997SOL     OW17989   2.710   3.069   3.352 -0.0858  0.0509 -0.4242
 5997SOL    HW117990   2.622   3.074   3.390 -0.1645  1.3452 -0.7250
 5997SOL    HW217991   2.710   3.136   3.285  1.4322  0.6914  0.1824
 5998SOL     OW17992   1.015   3.221   3.009 -0.2558 -0.1565  0.4299
 5998SOL    HW117993   0.986   3.206   2.919  0.8548 -1.3258  0.2343
 5998SOL    HW217994   0.944   3.271   3.049 -0.8196  0.2993 -1.0609
 5999SOL     OW17995   4.064   0.200   2.959  0.1788 -0.1575 -0.0306
 5999SOL    HW117996   3.991   0.190   2.898  0.5843 -1.4499 -0.3204
 5999SOL    HW217997   4.032   0.264   3.023 -0.9071 -0.1077 -0.5939
 6000SOL     OW17998   2.985   1.023   4.288  0.0043 -0.3616 -0.4576
 6000SOL    HW117999   2.944   0.983   4.211  1.0284 -1.2371 -0.5648
 6000SOL    HW218000   2.919   1.015   4.356 -0.6515 -0.2119 -1.0620
 6001SOL     OW18001   5.517   2.241   3.756  0.0826 -0.4748 -0.0258
 6001SOL    HW118002   5.478   2.196   3.831 -1.7845 -0.7838 -1.1040
 6001SOL    HW218003   5.515   2.334   3.781 -0.5189 -0.5740  0.3172
 6002SOL     OW18004   5.039   4.256   2.065  1.0111 -0.2083 -0.3159
 6002SOL    HW118005   4.969   4.216   2.014  1.2919 -0.9019 -0.1607
 6002SOL    HW218006   5.047   4.345   2.029  0.1369 -0.1638 -0.4080
 6003SOL     OW18007   3.267   0.527   2.495  0.1800  0.4826  0.3385
 6003SOL    HW118008   3.209   0.577   2.438 -2.5576  0.5593  2.9769
 6003SOL    HW218009   3.225   0.441   2.504  2.4319 -0.8070 -0.4789
 6004SOL     OW18010   1.981   4.863   5.902 -0.4723 -0.1158 -0.2092
 6004SOL    HW118011   1.947   4.913   5.828  1.0556  0.0862 -0.8140
 6004SOL    HW218012   2.065   4.828   5.871  0.1041 -0.1870  1.3433
 6005SOL     OW18013   4.950   6.000   1.550  0.4201 -1.1235  0.0519
 6005SOL    HW118014   4.875   5.982   1.607 -0.3683 -2.4310 -1.3129
 6005SOL    HW218015   4.965   5.917   1.504  2.6136 -0.8407  0.1569
 6006SOL     OW18016   4.979   5.864   3.570 -0.5311  0.1975 -0.0485
 6006SOL    HW118017   5.036   5.873   3.646  0.4975  1.0978 -0.8836
 6006SOL    HW218018   5.011   5.785   3.526 -2.8315 -1.9162  1.7741
 6007SOL     OW18019   5.388   5.877   1.869 -0.6041  0.2154 -1.1015
 6007SOL    HW118020   5.426   5.874   1.957 -1.6946 -0.8434 -0.6376
 6007SOL    HW218021   5.441   5.942   1.823  0.5949  0.1137  0.0440
 6008SOL     OW18022   3.283   2.112   3.598 -0.5003  0.0424  0.5924
 6008SOL    HW118023   3.195   2.075   3.607 -1.7354  2.8629  1.0061
 6008SOL    HW218024   3.284   2.149   3.509 -0.5116  1.7950  1.2920
 6009SOL     OW18025   4.196   1.830   5.847  0.2438  0.3745  0.5647
 6009SOL    HW118026   4.282   1.872   5.849  1.0090 -1.0885  0.2609
 6009SOL    HW218027   4.172   1.829   5.754  0.3152 -0.0068  0.5484
 6010SOL     OW18028   3.051   2.891   3.872  0.8783 -0.3808 -0.2315
 6010SOL    HW118029   3.011   2.909   3.787  0.9226 -3.9429 -1.1513
 6010SOL    HW218030   3.138   2.858   3.851  1.1374 -0.6814  1.2357
 6011SOL     OW18031   3.849   5.925   0.140  0.0390  0.4559 -0.0770
 6011SOL    HW118032   3.939   5.956   0.148  0.8982 -1.8978  0.0386
 6011SOL    HW218033   3.822   5.907   0.230 -0.3327  0.5452 -0.1672
 6012SOL     OW18034   3.824   5.002   4.938  0.2926  0.0897 -0.1734
 6012SOL    HW118035   3.869   4.934   4.988  0.4916  0.3801  0.0449
 6012SOL    HW218036   3.857   5.084   4.974  0.2040  0.3015 -0.5740
 6013SOL     OW18037   4.926   0.862   1.974  0.7900 -0.0847  0.1249
 6013SOL    HW118038   5.021   0.877   1.976  0.9617 -1.1125  0.1021
 6013SOL    HW218039   4.900   0.862   2.067  1.0777 -1.3145  0.2241
 6014SOL     OW18040   3.560   3.838   1.886 -0.1203  0.0780 -0.3852
 6014SOL    HW118041   3.638   3.860   1.835 -0.5584  0.2690 -0.9808
 6014SOL    HW218042   3.495   3.903   1.860 -0.9085 -0.8969 -0.8978
 6015SOL     OW18043   3.378   1.445   3.690  0.1304  0.4066 -0.3088
 6015SOL    HW118044   3.435   1.519   3.670 -0.2858  0.7229 -0.3519
 6015SOL    HW218045   3.434   1.382   3.734  0.4933  0.7422 -0.2887
 6016SOL     OW18046   4.209   1.890   2.481  0.2597  0.4986 -0.2312
 6016SOL    HW118047   4.235   1.831   2.552  1.0609  0.9766 -0.1166
 6016SOL    HW218048   4.276   1.958   2.481 -1.3589  2.1821  0.5330
 6017SOL     OW18049   4.723   5.166   0.721 -0.1525  0.2442  0.7401
 6017SOL    HW118050   4.631   5.148   0.738 -0.7605  0.6176 -1.6719
 6017SOL    HW218051   4.743   5.242   0.776 -1.5705  0.7081  0.6763
 6018SOL     OW18052   4.263   0.159   2.777 -0.5262  0.1058  0.5832
 6018SOL    HW118053   4.196   0.171   2.844 -0.1053  0.4975  0.9402
 6018SOL    HW218054   4.235   0.081   2.729  0.4498 -1.6669  2.7642
 6019SOL     OW18055   3.424   3.309   1.685  0.6677 -0.3323  0.1610
 6019SOL    HW118056   3.427   3.218   1.714 -1.1151 -0.3384  0.4900
 6019SOL    HW218057   3.413   3.304   1.590 -0.3558 -0.5066  0.2770
 6020SOL     OW18058   4.104   5.703   1.821 -0.1795 -0.2231 -0.4954
 6020SOL    HW118059   4.141   5.781   1.862  1.2773 -1.4106  0.5724
 6020SOL    HW218060   4.027   5.734   1.774  0.3814  1.8441 -0.1246
 6021SOL     OW18061   2.270   3.036   5.840  0.1050  0.1100 -0.2307
 6021SOL    HW118062   2.255   2.980   5.916  0.0196  0.0970 -0.2566
 6021SOL    HW218063   2.362   3.024   5.820 -0.3007 -1.4907 -1.3703
 6022SOL     OW18064   2.284   3.412   3.251  0.0496 -0.5492  0.1924
 6022SOL    HW118065   2.338   3.334   3.237  1.9228  0.3860  1.8110
 6022SOL    HW218066   2.329   3.481   3.204  1.4259  0.6548  3.0585
 6023SOL     OW18067   4.321   5.323   2.568 -0.4945  0.1354 -0.3711
 6023SOL    HW118068   4.271   5.357   2.641  0.0377  0.1002  0.0150
 6023SOL    HW218069   4.280   5.239   2.548 -1.1949  0.5493 -0.6949
 6024SOL     OW18070   5.252   5.791   3.417 -0.7958 -0.2097  0.4956
 6024SOL    HW118071   5.171   5.741   3.408 -0.1243 -1.4405  0.9770
 6024SOL    HW218072   5.315   5.728   3.452  0.9761  0.0845 -1.9223
 6025SOL     OW18073   3.581   2.010   2.801  0.0414 -0.0231 -0.6992
 6025SOL    HW118074   3.518   1.954   2.755  0.8046 -0.6862 -0.9556
 6025SOL    HW218075   3.614   1.955   2.872 -1.0802  0.9660  0.6624
 6026SOL     OW18076   2.997   2.042   3.627 -0.0414  0.5459 -0.2393
 6026SOL    HW118077   2.977   1.967   3.683  1.5103  0.3286  0.0810
 6026SOL    HW218078   3.024   2.003   3.544 -0.0745  0.7846 -0.3626
 6027SOL     OW18079   0.287   5.373   1.495 -0.1354  0.3086  0.6001
 6027SOL    HW118080   0.305   5.283   1.469 -0.6245 -0.0519  1.4687
 6027SOL    HW218081   0.202   5.394   1.456 -0.4602  0.0642  1.1592
 6028SOL     OW18082   5.745   2.674   3.547 -0.1390 -0.5836  0.0336
 6028SOL    HW118083   5.739   2.767   3.569 -0.6483 -0.6019 -0.0111
 6028SOL    HW218084   5.786   2.672   3.460  1.7004 -0.5026  0.8632
 6029SOL     OW18085   0.106   2.446   4.315 -0.0443  0.1608  0.0441
 6029SOL    HW118086   0.092   2.442   4.220  2.6854 -0.5640 -0.4156
 6029SOL    HW218087   0.129   2.537   4.332 -1.9193  0.6220  0.2915
 6030SOL     OW18088   4.775   4.637   4.197 -0.1306 -0.2929  0.4739
 6030SOL    HW118089   4.766   4.584   4.276  1.5969 -2.6139 -0.7579
 6030SOL    HW218090   4.722   4.591   4.131  1.6903 -0.7673 -0.7195
 6031SOL     OW18091   2.006   3.338   1.901  0.1902  0.1533 -0.5580
 6031SOL    HW118092   2.056   3.418   1.917  1.0653 -0.5004  0.0520
 6031SOL    HW218093   1.921   3.355   1.939  1.1007 -0.0525  1.6980
 6032SOL     OW18094   2.686   5.817   4.252  0.1417 -0.3330 -0.1928
 6032SOL    HW118095   2.642   5.803   4.169  0.9307  1.2204 -0.9249
 6032SOL    HW218096   2.662   5.742   4.306  0.2900 -1.8053 -2.0977
 6033SOL     OW18097   2.037   4.144   3.585  0.1260 -0.3942 -0.4051
 6033SOL    HW118098   2.082   4.072   3.540 -0.4505 -0.4785 -0.8673
 6033SOL    HW218099   2.102   4.213   3.591  0.7682 -1.0327  0.2532
 6034SOL     OW18100   5.947   1.327   2.381  0.0461  0.6212  0.6322
 6034SOL    HW118101   5.860   1.293   2.404  0.7312 -0.4185  1.7890
 6034SOL    HW218102   5.943   1.341   2.286 -0.8142 -1.1267  0.3765
 6035SOL     OW18103   3.916   2.288   2.182  0.1619  0.7455  0.0020
 6035SOL    HW118104   3.985   2.333   2.231  0.9661 -0.6816  0.2198
 6035SOL    HW218105   3.923   2.197   2.208  1.2072 -0.2987 -3.4238
 6036SOL     OW18106   5.605   5.525   3.743  0.0691 -0.0030  0.1961
 6036SOL    HW118107   5.655   5.447   3.768 -0.8919 -0.8849 -0.5474
 6036SOL    HW218108   5.527   5.522   3.799 -1.2528 -1.0553 -1.5674
 6037SOL     OW18109   4.351   0.059   0.841  0.6211  0.3320  0.3594
 6037SOL    HW118110   4.377   0.041   0.931  0.1665  0.9217  0.6140
 6037SOL    HW218111   4.255   0.054   0.842  0.6430 -0.6103 -0.3045
 6038SOL     OW18112   1.665   3.163   3.557  0.1525 -0.3207 -0.0747
 6038SOL    HW118113   1.740   3.173   3.616 -0.6416 -1.0581  1.1034
 6038SOL    HW218114   1.680   3.080   3.513 -1.1256 -1.7838  2.0165
 6039SOL     OW18115   4.210   1.339   4.480 -1.1792 -0.5004 -0.1112
 6039SOL    HW118116   4.245   1.412   4.427 -2.5510  0.5416  0.3415
 6039SOL    HW218117   4.142   1.300   4.424 -0.8333 -1.0876 -0.1281
 6040SOL     OW18118   5.086   3.985   1.407 -0.2504  0.3053  0.1647
 6040SOL    HW118119   5.174   3.958   1.379 -0.4331  0.6118 -0.7390
 6040SOL    HW218120   5.062   4.055   1.345 -1.7686 -0.8357 -0.6003
 6041SOL     OW18121   3.901   2.396   5.185  0.3883  0.4829 -0.4500
 6041SOL    HW118122   3.985   2.375   5.224  0.4026 -1.4695 -1.4217
 6041SOL    HW218123   3.919   2.401   5.091 -0.8769 -2.1424 -0.9375
 6042SOL     OW18124   2.077   4.479   4.430 -0.2390 -0.0750  0.2161
 6042SOL    HW118125   2.030   4.558   4.402  0.9346  0.2363 -0.9394
 6042SOL    HW218126   2.124   4.506   4.508 -0.9249 -0.0316  0.6279
 6043SOL     OW18127   5.801   0.749   2.415  0.2444  0.1764 -0.1943
 6043SOL    HW118128   5.752   0.679   2.458 -4.1391  2.8858 -0.1697
 6043SOL    HW218129   5.816   0.717   2.326 -0.3415 -1.3184  0.2132
 6044SOL     OW18130   4.215   3.595   1.295 -0.6607 -0.1531 -0.4753
 6044SOL    HW118131   4.238   3.578   1.386  1.1953  0.3355 -0.7936
 6044SOL    HW218132   4.209   3.509   1.254  1.3978 -0.3364 -0.4899
 6045SOL     OW18133   1.931   5.188   0.170  0.1703  0.2008  0.2771
 6045SOL    HW118134   1.996   5.129   0.207 -0.4538 -0.6854 -0.0162
 6045SOL    HW218135   1.982   5.251   0.119  0.9195  0.5755  1.4694
 6046SOL     OW18136   2.875   5.916   4.917 -0.5379  0.3065 -0.3847
 6046SOL    HW118137   2.859   5.990   4.976 -1.0581 -0.1486  0.0650
 6046SOL    HW218138   2.792   5.904   4.872  0.0321  1.0335 -1.6863
 6047SOL     OW18139   1.812   4.341   0.316  0.5000  0.0363  0.1254
 6047SOL    HW118140   1.804   4.430   0.351  3.1626  0.6555 -0.5863
 6047SOL    HW218141   1.769   4.286   0.381 -0.4338  1.7470  1.0403
 6048SOL     OW18142   5.905   5.267   0.674 -0.1711 -0.4435 -0.2703
 6048SOL    HW118143   5.930   5.247   0.765  1.0032 -1.8964 -0.8633
 6048SOL    HW218144   5.949   5.349   0.654  1.2780 -1.1552 -0.1417
 6049SOL     OW18145   4.120   2.014   0.310  0.5192  0.0519  0.1261
 6049SOL    HW118146   4.038   2.063   0.320 -0.3970 -1.5279  0.7554
 6049SOL    HW218147   4.098   1.944   0.249  0.9382 -1.2567  1.4018
 6050SOL     OW18148   4.255   2.026   0.570 -0.5098  1.2382 -0.3923
 6050SOL    HW118149   4.163   2.029   0.596 -0.3217 -0.2177  0.5443
 6050SOL    HW218150   4.253   2.009   0.476 -1.2546 -1.6894  0.0670
 6051SOL     OW18151   5.083   1.047   3.532  0.4908 -0.0945 -0.1499
 6051SOL    HW118152   5.148   0.978   3.522  1.0523  0.5814 -1.3658
 6051SOL    HW218153   5.105   1.112   3.465  0.4059  1.6039  1.3616
 6052SOL     OW18154   3.441   1.235   2.481 -0.3430  0.0116 -0.2183
 6052SOL    HW118155   3.532   1.263   2.493 -0.2740 -0.7529  1.3618
 6052SOL    HW218156   3.395   1.315   2.456  0.4278  0.8756  0.9636
 6053SOL     OW18157   3.327   2.791   3.850 -0.2845 -0.1559  0.4818
 6053SOL    HW118158   3.369   2.705   3.850 -0.4670 -0.2899  2.5831
 6053SOL    HW218159   3.394   2.851   3.883 -0.2765  0.4835 -0.6164
 6054SOL     OW18160   3.806   3.005   3.856 -0.4639 -0.2658 -0.1631
 6054SOL    HW118161   3.830   3.028   3.766  0.2657  0.2158  0.1422
 6054SOL    HW218162   3.881   2.956   3.890 -0.4645  0.0822  0.3683
 6055SOL     OW18163   4.333   4.803   3.793 -0.2829 -0.6696 -0.7238
 6055SOL    HW118164   4.404   4.858   3.760  0.8694 -1.7470 -0.1445
 6055SOL    HW218165   4.349   4.717   3.754 -0.1895 -1.3922  0.8198
 6056SOL     OW18166   4.413   1.847   4.205 -0.1160  0.2379  0.7704
 6056SOL    HW118167   4.401   1.766   4.154 -0.6153 -0.0126  1.2665
 6056SOL    HW218168   4.508   1.858   4.210 -0.0200  1.5767 -2.2175
 6057SOL     OW18169   5.882   5.994   1.897  0.4049 -0.5002  0.0555
 6057SOL    HW118170   5.823   6.025   1.828 -0.1829  0.5622  0.9997
 6057SOL    HW218171   5.917   5.911   1.863  0.0329 -0.0791 -1.4473
 6058SOL     OW18172   4.787   5.259   2.222  0.3277  0.4892 -0.4667
 6058SOL    HW118173   4.794   5.350   2.193  0.9985  0.0452 -1.7730
 6058SOL    HW218174   4.720   5.261   2.291 -2.6855  1.3329 -3.1812
 6059SOL     OW18175   4.901   0.167   3.524 -0.2414 -0.2656  0.0307
 6059SOL    HW118176   4.953   0.091   3.552 -0.9538 -0.3043  1.3202
 6059SOL    HW218177   4.946   0.242   3.562  0.5222 -0.0140 -1.3345
 6060SOL     OW18178   2.930   3.674   2.785  0.0255 -0.4289 -0.3947
 6060SOL    HW118179   2.980   3.723   2.719  1.3465 -2.4686 -0.9962
 6060SOL    HW218180   2.904   3.593   2.741  0.5846 -1.6741  1.4428
 6061SOL     OW18181   4.823   3.182   3.223 -0.1718  0.1234  0.1875
 6061SOL    HW118182   4.729   3.165   3.212  0.0524 -0.7427 -0.5012
 6061SOL    HW218183   4.866   3.114   3.170  0.8563 -0.0231  1.1685
 6062SOL     OW18184   4.577   4.446   0.455  0.6614 -0.2214  0.0190
 6062SOL    HW118185   4.666   4.477   0.439  0.3901 -0.0753 -1.3706
 6062SOL    HW218186   4.585   4.386   0.529  1.4296  2.0805  1.9593
 6063SOL     OW18187   5.485   3.697   2.132 -0.3230 -0.1478 -0.2001
 6063SOL    HW118188   5.467   3.776   2.184  0.6904 -0.8495  1.3007
 6063SOL    HW218189   5.477   3.726   2.041 -0.5409  1.5366  0.3111
 6064SOL     OW18190   5.694   3.048   3.124  0.2957  0.1831 -0.4900
 6064SOL    HW118191   5.667   2.962   3.158 -0.3664  0.0633 -1.2960
 6064SOL    HW218192   5.614   3.086   3.089  0.9180  0.4064 -1.7002
 6065SOL     OW18193   4.398   3.392   2.327 -0.0416 -0.2427  0.0468
 6065SOL    HW118194   4.446   3.473   2.307  1.5749 -0.5356  2.3245
 6065SOL    HW218195   4.453   3.322   2.292 -0.0876 -0.4788  0.4434
 6066SOL     OW18196   4.158   2.249   1.854  0.0696  0.2592  0.4399
 6066SOL    HW118197   4.112   2.257   1.770  1.7705 -0.9707 -0.6894
 6066SOL    HW218198   4.151   2.156   1.876  3.0419 -0.2888 -0.4868
 6067SOL     OW18199   2.148   4.125   4.660 -0.1905 -0.0451  0.4844
 6067SOL    HW118200   2.115   4.035   4.651  0.8647 -0.4135  0.2528
 6067SOL    HW218201   2.236   4.115   4.695  0.5538  0.8187 -1.0793
 6068SOL     OW18202   2.170   0.654   3.019 -0.3221  0.5675  0.4203
 6068SOL    HW118203   2.141   0.635   3.108  0.2192  0.8944  0.6675
 6068SOL    HW218204   2.116   0.597   2.964  1.0578 -1.5499  1.1197
 6069SOL     OW18205   2.595   0.846   4.754  0.1132 -0.2147  0.7859
 6069SOL    HW118206   2.642   0.869   4.833  3.1302 -1.1056 -0.6208
 6069SOL    HW218207   2.653   0.786   4.707 -2.6386 -1.7591 -0.9268
 6070SOL     OW18208   2.093   2.934   4.542  0.1500  0.0590  0.4894
 6070SOL    HW118209   2.171   2.982   4.515 -0.0387 -0.2030 -0.5521
 6070SOL    HW218210   2.021   2.997   4.533  0.1265  0.0548  0.6508
 6071SOL     OW18211   4.376   1.828   3.112  0.1665  0.3615 -0.1134
 6071SOL    HW118212   4.385   1.737   3.083  0.0419  1.0440 -2.5185
 6071SOL    HW218213   4.301   1.827   3.171  1.5550 -1.4495  1.7340
 6072SOL     OW18214   4.108   2.483   4.623 -0.0097 -0.1084 -0.5190
 6072SOL    HW118215   4.172   2.522   4.683 -0.0484  3.0146 -2.3105
 6072SOL    HW218216   4.056   2.424   4.679  3.4170 -1.6837  1.2849
 6073SOL     OW18217   1.200   4.937   1.438  0.2666  0.2535 -0.0885
 6073SOL    HW118218   1.166   5.021   1.409 -2.5081 -2.0323 -4.5797
 6073SOL    HW218219   1.126   4.895   1.483  0.3233 -1.0749 -1.1575
 6074SOL     OW18220   0.507   0.444   1.978  0.3269  0.1420 -0.6479
 6074SOL    HW118221   0.522   0.353   1.952 -0.6261  0.3813 -2.1176
 6074SOL    HW218222   0.581   0.464   2.036  0.8494 -1.3860 -0.7314
 6075SOL     OW18223   3.358   5.025   4.672  0.2272 -0.2417 -0.0965
 6075SOL    HW118224   3.284   4.970   4.699 -1.3314  2.2938  1.1792
 6075SOL    HW218225   3.355   5.023   4.576  0.5649 -2.7135 -0.1190
 6076SOL     OW18226   5.098   2.472   0.047  0.2680 -0.0322 -0.1680
 6076SOL    HW118227   5.153   2.399   0.019  0.0308 -0.2176 -0.1492
 6076SOL    HW218228   5.119   2.543  -0.015 -0.2601 -0.4401 -0.8227
 6077SOL     OW18229   2.139   5.586   1.270 -0.0890 -0.5914  0.1580
 6077SOL    HW118230   2.142   5.622   1.181 -0.2742 -0.9761 -0.0047
 6077SOL    HW218231   2.178   5.499   1.262 -1.1397 -1.0812  0.2306
 6078SOL     OW18232   2.908   1.748   2.431 -1.4684  0.1128  0.1914
 6078SOL    HW118233   2.860   1.779   2.508 -0.3845  1.8962  0.1980
 6078SOL    HW218234   2.996   1.730   2.465 -1.0897  0.5466 -0.5467
 6079SOL     OW18235   4.003   4.333   1.600  0.8234  0.1729 -0.2198
 6079SOL    HW118236   3.932   4.369   1.547  1.0178  1.8220  0.6018
 6079SOL    HW218237   4.031   4.255   1.551 -2.1424 -1.1269 -0.1175
 6080SOL     OW18238   3.373   4.691   1.765  0.3062  0.3749 -0.4543
 6080SOL    HW118239   3.450   4.715   1.714  1.3327  0.0791  0.8884
 6080SOL    HW218240   3.407   4.676   1.854 -1.0666 -1.1735 -0.1453
 6081SOL     OW18241   2.108   1.026   2.212  0.2202 -0.0928 -0.7562
 6081SOL    HW118242   2.156   0.944   2.224 -0.5118 -0.4155  0.1015
 6081SOL    HW218243   2.139   1.083   2.282 -0.2042 -0.0945 -0.5629
 6082SOL     OW18244   5.306   5.823   0.997  0.2225  0.2129 -0.5503
 6082SOL    HW118245   5.298   5.918   0.984  1.6015  0.4930  0.3659
 6082SOL    HW218246   5.285   5.809   1.089 -1.3259 -0.5852 -0.9979
 6083SOL     OW18247   0.657   3.826   3.731 -0.2958  0.0661 -0.0550
 6083SOL    HW118248   0.654   3.827   3.827  2.7518  1.3381  0.1755
 6083SOL    HW218249   0.733   3.771   3.711 -0.6747  0.1145 -1.7123
 6084SOL     OW18250   2.715   5.028   4.955  0.6913  0.3072  0.5768
 6084SOL    HW118251   2.810   5.030   4.941  0.4871  2.0843 -1.0903
 6084SOL    HW218252   2.685   4.954   4.903  0.9362  1.3926 -1.2036
 6085SOL     OW18253   4.510   1.964   2.935  0.1385  0.3270  0.0888
 6085SOL    HW118254   4.446   1.942   3.003 -0.6331 -3.2110 -1.5731
 6085SOL    HW218255   4.570   2.025   2.978 -0.6594 -1.2001  3.7656
 6086SOL     OW18256   0.025   1.030   2.794 -0.1507 -0.2818  0.0864
 6086SOL    HW118257  -0.057   0.987   2.818 -0.3296 -0.2076 -0.3850
 6086SOL    HW218258   0.086   0.958   2.777  0.5494 -0.3646  2.5878
 6087SOL     OW18259   5.284   4.062   4.228 -0.4567 -0.1702 -0.1250
 6087SOL    HW118260   5.265   4.055   4.134  0.7484  0.0574 -0.3957
 6087SOL    HW218261   5.198   4.074   4.269 -1.1497 -1.7268 -1.0507
 6088SOL     OW18262   0.113   2.911   3.404 -0.3144 -0.3570  0.2234
 6088SOL    HW118263   0.037   2.853   3.402 -0.3602 -0.2965  0.2128
 6088SOL    HW218264   0.077   2.999   3.393 -0.0763 -0.4862 -2.0454
 6089SOL     OW18265   4.661   5.377   5.072  0.1922  0.7646  0.7338
 6089SOL    HW118266   4.621   5.461   5.096 -0.2307  0.6967  0.2903
 6089SOL    HW218267   4.618   5.353   4.990 -1.0056 -0.7782  1.7595
 6090SOL     OW18268   5.347   5.478   4.195  0.5849 -0.3820  0.5256
 6090SOL    HW118269   5.252   5.475   4.205  0.6053 -1.1872  0.6075
 6090SOL    HW218270   5.375   5.387   4.206  1.2378 -0.3650 -0.7652
 6091SOL     OW18271   4.045   5.095   5.247 -0.1408  0.4038 -0.5007
 6091SOL    HW118272   4.081   5.044   5.175 -2.4811  0.4519 -1.7954
 6091SOL    HW218273   3.955   5.063   5.257 -0.0573  0.7495  2.0916
 6092SOL     OW18274   3.573   3.639   1.266  0.4117 -0.1797 -0.2990
 6092SOL    HW118275   3.553   3.715   1.321  2.9719  0.8985 -0.6999
 6092SOL    HW218276   3.650   3.666   1.216  1.2904 -2.9956 -0.6171
 6093SOL     OW18277   3.750   0.729   1.456  0.4526  0.2991  0.3762
 6093SOL    HW118278   3.778   0.647   1.497  1.1081 -0.1160 -0.8357
 6093SOL    HW218279   3.723   0.785   1.529 -0.2496 -1.0743  1.2097
 6094SOL     OW18280   5.669   0.695   2.828 -0.0679 -0.0316 -0.4311
 6094SOL    HW118281   5.747   0.657   2.869  0.0389  1.7122  1.1034
 6094SOL    HW218282   5.623   0.620   2.790  2.5506 -1.0562 -1.7881
 6095SOL     OW18283   5.114   4.899   3.753 -0.5900 -0.1092  0.9938
 6095SOL    HW118284   5.181   4.844   3.793  0.5331  0.0809 -0.5577
 6095SOL    HW218285   5.153   4.987   3.750 -1.6459  0.4088  1.7636
 6096SOL     OW18286   5.186   3.667   3.006 -0.2599  0.1946  0.2318
 6096SOL    HW118287   5.172   3.613   2.929  0.1746  0.8102 -0.2859
 6096SOL    HW218288   5.151   3.754   2.982 -1.4683  0.0256  1.2483
 6097SOL     OW18289   4.323   1.230   2.195 -0.3834 -0.3599  0.1624
 6097SOL    HW118290   4.388   1.257   2.132 -2.4133  1.2612 -1.3665
 6097SOL    HW218291   4.319   1.301   2.259 -2.0790  0.6423 -0.9681
 6098SOL     OW18292   1.509   1.124   4.595 -0.5203 -0.1595  0.1707
 6098SOL    HW118293   1.508   1.047   4.651 -0.8910 -1.0569 -1.0294
 6098SOL    HW218294   1.468   1.095   4.513  2.6851  0.1256 -1.7572
 6099SOL     OW18295   1.453   4.391   5.020 -0.0779  0.5330  0.2395
 6099SOL    HW118296   1.366   4.360   4.993  0.5959 -0.5685 -0.7818
 6099SOL    HW218297   1.514   4.333   4.974  1.1922 -0.1913  2.6611
 6100SOL     OW18298   3.285   5.493   4.518 -0.0704 -0.4926  0.3437
 6100SOL    HW118299   3.360   5.470   4.573 -0.2132  1.7752  1.6086
 6100SOL    HW218300   3.316   5.479   4.429  1.9547  0.5712  0.8198
 6101SOL     OW18301   3.214   4.374   2.742 -0.0955 -0.3784 -0.3181
 6101SOL    HW118302   3.203   4.468   2.754  0.1020 -0.3600 -0.2754
 6101SOL    HW218303   3.296   4.365   2.692 -0.3388 -0.5065 -0.7016
 6102SOL     OW18304   0.982   4.575   5.031 -0.0560  0.2893 -0.3436
 6102SOL    HW118305   0.978   4.662   4.990 -0.5565  0.0542 -0.7865
 6102SOL    HW218306   1.045   4.587   5.102  2.2846  0.2531 -2.2724
 6103SOL     OW18307   1.619   4.747   2.738  0.1036  0.0624  0.5633
 6103SOL    HW118308   1.710   4.728   2.760 -0.0925 -0.7960  0.6563
 6103SOL    HW218309   1.574   4.751   2.823  0.3603  2.3084  0.6690
 6104SOL     OW18310   4.334   3.627   1.780  0.4603  0.1912 -0.7932
 6104SOL    HW118311   4.276   3.629   1.856  0.9635  1.1679 -0.4244
 6104SOL    HW218312   4.390   3.550   1.794  0.6403  0.4421 -0.1106
 6105SOL     OW18313   0.018   3.184   2.845  0.4322  0.0029 -0.7921
 6105SOL    HW118314   0.050   3.185   2.755  1.6210  1.4575 -0.3945
 6105SOL    HW218315   0.017   3.276   2.871  2.2546 -0.4887  1.3675
 6106SOL     OW18316   2.717   2.907   2.705 -0.9212  0.3919  0.3816
 6106SOL    HW118317   2.730   2.813   2.717 -0.6656  0.3406 -0.2794
 6106SOL    HW218318   2.766   2.947   2.778 -0.1662  0.0467  0.0781
 6107SOL     OW18319   2.398   2.124   3.727 -0.0438 -0.0278  0.0668
 6107SOL    HW118320   2.338   2.190   3.693  0.1027  0.2735  0.3905
 6107SOL    HW218321   2.474   2.130   3.669 -0.7958 -1.2546 -1.1147
 6108SOL     OW18322   5.462   5.218   4.225 -0.1950 -0.6035 -0.3457
 6108SOL    HW118323   5.443   5.149   4.289 -1.3219  0.1288  0.1403
 6108SOL    HW218324   5.450   5.176   4.140 -1.2569 -0.9147 -0.0518
 6109SOL     OW18325   3.462   1.813   1.655  0.1558  0.0133 -0.2796
 6109SOL    HW118326   3.531   1.757   1.692  0.6509  0.2232 -0.8488
 6109SOL    HW218327   3.430   1.764   1.579  0.3822  0.3531 -0.6035
 6110SOL     OW18328   5.007   3.499   0.164  0.6073  0.3814 -0.0115
 6110SOL    HW118329   4.924   3.459   0.138 -0.2551  0.8281  1.8724
 6110SOL    HW218330   5.063   3.492   0.087 -0.6668 -1.3200 -0.8369
 6111SOL     OW18331   4.873   3.735   5.871 -0.8473 -0.3913  0.0958
 6111SOL    HW118332   4.956   3.741   5.917 -0.9777 -0.4489  0.3377
 6111SOL    HW218333   4.836   3.651   5.898 -1.8343  0.4361  1.4046
 6112SOL     OW18334   0.461   0.077   1.827 -0.3269  0.0092 -0.0477
 6112SOL    HW118335   0.418   0.105   1.746  1.0495 -0.1967 -0.8821
 6112SOL    HW218336   0.516   0.151   1.852 -1.5666  0.5046  1.3448
 6113SOL     OW18337   5.304   5.205   1.833 -0.1317  0.0511 -1.0573
 6113SOL    HW118338   5.209   5.196   1.842 -0.0667  0.6266  0.5844
 6113SOL    HW218339   5.335   5.217   1.922  1.6100 -1.0547 -1.4723
 6114SOL     OW18340   3.771   4.098   0.393 -0.4172  0.2455  0.5746
 6114SOL    HW118341   3.849   4.069   0.440 -0.6730  0.1930  0.9685
 6114SOL    HW218342   3.803   4.160   0.328  0.0416 -0.3280  0.2462
 6115SOL     OW18343   3.223   5.229   1.034  0.4261 -0.0207 -0.0600
 6115SOL    HW118344   3.174   5.266   1.108 -0.4874 -0.8300 -0.2350
 6115SOL    HW218345   3.297   5.288   1.022  1.0729 -0.3417  2.0509
 6116SOL     OW18346   3.208   3.948   2.891 -0.1386 -0.2771  0.0144
 6116SOL    HW118347   3.302   3.963   2.884 -0.3867  1.2305 -0.5121
 6116SOL    HW218348   3.186   3.974   2.981  0.1351 -1.8884  0.5691
 6117SOL     OW18349   4.776   0.590   2.255 -0.4057 -0.7968 -0.1650
 6117SOL    HW118350   4.734   0.631   2.330  1.0859  0.2311  0.1488
 6117SOL    HW218351   4.718   0.608   2.181 -1.6216 -1.3629  0.6181
 6118SOL     OW18352   4.658   3.983   2.991  0.2846  0.2023 -0.6683
 6118SOL    HW118353   4.715   4.049   2.952  0.0493  0.9356  0.1835
 6118SOL    HW218354   4.664   3.999   3.086  2.5040 -2.8708 -0.1601
 6119SOL     OW18355   1.890   3.488   4.197  0.4793  0.2949  0.0013
 6119SOL    HW118356   1.853   3.575   4.183  1.2206  0.7825  0.9617
 6119SOL    HW218357   1.977   3.504   4.234  0.1163 -0.8574  1.4463
 6120SOL     OW18358   0.083   0.901   5.508 -0.0780  0.2316 -0.0475
 6120SOL    HW118359   0.113   0.850   5.433 -0.6907 -1.6141  0.8925
 6120SOL    HW218360   0.161   0.912   5.562 -0.2848 -1.4231  0.6519
 6121SOL     OW18361   5.274   4.486   3.259  0.1982 -0.0061  0.0666
 6121SOL    HW118362   5.294   4.400   3.297  0.3521  0.4726  1.0867
 6121SOL    HW218363   5.182   4.480   3.233  0.3138 -0.6046 -0.2210
 6122SOL     OW18364   4.082   3.839   1.413 -0.1315 -0.6656  0.5994
 6122SOL    HW118365   4.086   3.755   1.459  0.5054 -1.2971 -0.5607
 6122SOL    HW218366   4.126   3.822   1.329  0.0547  0.8433  0.3721
 6123SOL     OW18367   2.491   0.776   1.654  0.9659  0.3541  0.0370
 6123SOL    HW118368   2.464   0.710   1.590 -1.3397  0.7401  0.4989
 6123SOL    HW218369   2.454   0.858   1.620  3.0364  1.2895 -0.0740
 6124SOL     OW18370   5.489   0.304   3.031  0.4629 -0.0809  0.2128
 6124SOL    HW118371   5.404   0.274   3.001  0.6757 -0.4465 -0.0393
 6124SOL    HW218372   5.539   0.223   3.045  0.4651  0.0858  1.2653
 6125SOL     OW18373   5.158   3.203   3.885  0.3306  0.5693  0.5451
 6125SOL    HW118374   5.208   3.216   3.805 -0.6739 -0.6036 -0.3218
 6125SOL    HW218375   5.188   3.118   3.918  0.7982  1.0826  1.4828
 6126SOL     OW18376   3.604   0.636   0.963 -0.0206  0.0332  0.5214
 6126SOL    HW118377   3.673   0.615   0.900  0.3285 -1.8077  1.4325
 6126SOL    HW218378   3.648   0.635   1.048 -0.4421  2.6754  0.8503
 6127SOL     OW18379   0.193   3.804   3.592 -0.4450 -0.2270  0.9331
 6127SOL    HW118380   0.240   3.887   3.591  3.3051 -2.0836 -1.7388
 6127SOL    HW218381   0.166   3.789   3.501 -2.8520 -1.1000  1.7063
 6128SOL     OW18382   5.990   0.093   2.787 -0.2056  0.2932  0.1642
 6128SOL    HW118383   5.979   0.179   2.829 -0.6365  0.4054 -0.1698
 6128SOL    HW218384   5.911   0.082   2.734 -1.2845 -1.3345  1.9713
 6129SOL     OW18385   2.064   2.546   3.178 -0.0317  0.1651  0.2349
 6129SOL    HW118386   2.009   2.546   3.256 -0.4233 -0.2704 -0.0330
 6129SOL    HW218387   2.137   2.488   3.201 -1.0161 -1.3398 -0.2979
 6130SOL     OW18388   5.324   4.731   2.092  0.0988  0.1336 -0.4298
 6130SOL    HW118389   5.335   4.647   2.136 -0.6493  0.5415  0.5884
 6130SOL    HW218390   5.238   4.763   2.122 -0.4053  0.4875 -2.1163
 6131SOL     OW18391   3.225   3.332   3.054  0.1672  0.4605 -0.6417
 6131SOL    HW118392   3.134   3.355   3.036 -0.1614 -0.1160  0.1845
 6131SOL    HW218393   3.247   3.267   2.987 -0.4685 -0.3693 -0.0733
 6132SOL     OW18394   5.472   0.070   1.191 -0.6537  0.1717  0.0218
 6132SOL    HW118395   5.472   0.144   1.251  0.0148  0.3510 -0.1878
 6132SOL    HW218396   5.440   0.105   1.108 -0.1053  0.2891 -0.1443
 6133SOL     OW18397   0.182   2.698   4.625  0.0515 -0.1487 -0.1778
 6133SOL    HW118398   0.141   2.711   4.711  0.0458  0.6688 -0.2987
 6133SOL    HW218399   0.180   2.784   4.584  0.1995 -0.5002 -0.9403
 6134SOL     OW18400   4.870   3.155   2.161  0.4317 -0.2561  0.6045
 6134SOL    HW118401   4.921   3.201   2.095  0.2422 -0.7216  0.1270
 6134SOL    HW218402   4.936   3.106   2.212  0.5113 -0.4471  0.3192
 6135SOL     OW18403   2.548   3.116   2.633  0.1303 -0.2881 -0.2081
 6135SOL    HW118404   2.471   3.065   2.605 -2.6550  1.2695  3.6302
 6135SOL    HW218405   2.608   3.051   2.669 -1.4101 -1.2635  0.7059
 6136SOL     OW18406   3.770   5.583   4.566 -0.2124  0.4960 -0.1809
 6136SOL    HW118407   3.858   5.613   4.546  0.5667 -0.2592  1.7691
 6136SOL    HW218408   3.725   5.578   4.482  1.7339  0.5263 -1.2597
 6137SOL     OW18409   5.404   3.256   3.295 -0.0293  0.2701 -0.2492
 6137SOL    HW118410   5.374   3.239   3.206  0.0022 -0.3548 -0.1439
 6137SOL    HW218411   5.482   3.202   3.305  0.4315  0.9501 -0.1094
 6138SOL     OW18412   3.478   1.277   5.058  0.0747 -0.4619  0.0561
 6138SOL    HW118413   3.459   1.201   5.113 -0.9170  0.9507  1.7766
 6138SOL    HW218414   3.549   1.322   5.103 -1.2049  1.0798  0.6089
 6139SOL     OW18415   2.586   3.544   5.333 -0.1280 -0.4795  0.4197
 6139SOL    HW118416   2.559   3.453   5.348  0.4914 -0.5119  1.4131
 6139SOL    HW218417   2.505   3.590   5.310 -0.7938 -0.8784  1.8499
 6140SOL     OW18418   4.631   5.829   4.232  0.2993  0.4158  0.5955
 6140SOL    HW118419   4.616   5.817   4.139 -0.2624 -2.5265  0.9454
 6140SOL    HW218420   4.673   5.914   4.240  0.0662  0.8777 -2.2873
 6141SOL     OW18421   2.303   3.781   2.057 -0.3470  0.4902 -0.0470
 6141SOL    HW118422   2.317   3.793   2.151 -0.2568 -1.2825  0.1994
 6141SOL    HW218423   2.389   3.753   2.024 -0.5480  0.4370 -0.5297
 6142SOL     OW18424   5.053   4.625   3.488  0.4118 -0.1923 -0.3257
 6142SOL    HW118425   5.074   4.709   3.448 -1.6014  0.4039 -0.2588
 6142SOL    HW218426   5.133   4.599   3.533  0.9145  1.9694  0.1305
 6143SOL     OW18427   3.299   4.984   3.022  0.0995 -0.0006 -0.2280
 6143SOL    HW118428   3.262   5.021   2.942 -0.0522  0.8517  0.2140
 6143SOL    HW218429   3.239   5.012   3.091 -0.0175 -1.0982  0.1386
 6144SOL     OW18430   3.255   5.788   2.699  0.3561  0.2835  0.2373
 6144SOL    HW118431   3.174   5.783   2.649 -0.1692  2.2122  0.7940
 6144SOL    HW218432   3.303   5.709   2.675 -0.7481  0.1404 -1.7537
 6145SOL     OW18433   4.725   3.374   4.003 -0.3956 -0.2622 -0.2311
 6145SOL    HW118434   4.813   3.408   4.017 -0.6726  1.0044 -1.3261
 6145SOL    HW218435   4.732   3.318   3.926 -0.9781  1.9536 -2.0056
 6146SOL     OW18436   4.241   4.090   2.706 -1.0980  0.3545 -0.4198
 6146SOL    HW118437   4.329   4.085   2.668 -1.1965  3.9640 -1.4820
 6146SOL    HW218438   4.255   4.082   2.801  1.3566  5.8505  0.0761
 6147SOL     OW18439   5.224   1.237   1.009 -0.5813 -0.4809 -0.2716
 6147SOL    HW118440   5.226   1.329   1.036 -0.6394 -0.9435  1.4631
 6147SOL    HW218441   5.147   1.201   1.052  0.0539 -1.5805 -0.0062
 6148SOL     OW18442   3.578   1.271   4.089 -0.4779  0.4032 -0.0771
 6148SOL    HW118443   3.606   1.328   4.018 -1.5371  0.5405 -0.3985
 6148SOL    HW218444   3.604   1.317   4.169  0.8155  0.1925 -0.3623
 6149SOL     OW18445   2.598   4.509   5.781 -0.6903 -0.3706  0.1848
 6149SOL    HW118446   2.599   4.431   5.836 -0.5672 -0.8491 -0.4749
 6149SOL    HW218447   2.655   4.571   5.826 -0.5619 -0.7634  0.5728
 6150SOL     OW18448   4.359   5.183   3.227 -0.2178 -0.0465 -0.2712
 6150SOL    HW118449   4.340   5.228   3.144 -1.6370  0.4984  0.3106
 6150SOL    HW218450   4.290   5.214   3.286  1.2682  0.2523  1.3742
 6151SOL     OW18451   1.911   5.293   2.959 -0.1708  0.0865 -0.5113
 6151SOL    HW118452   1.893   5.286   2.865  0.3717  2.9897 -0.9235
 6151SOL    HW218453   1.850   5.231   3.000 -1.8297  0.2030 -2.6337
 6152SOL     OW18454   3.614   5.463   1.320  0.1692  0.4025 -0.2079
 6152SOL    HW118455   3.651   5.490   1.236 -0.3165 -1.5679 -1.1180
 6152SOL    HW218456   3.662   5.383   1.344 -1.0293 -0.1837  0.3741
 6153SOL     OW18457   2.596   3.201   4.068  0.6694 -0.2935 -0.0245
 6153SOL    HW118458   2.582   3.257   4.144 -0.1455 -1.0429  0.3882
 6153SOL    HW218459   2.611   3.114   4.104 -0.8351 -0.8798 -0.7410
 6154SOL     OW18460   5.165   0.227   0.678 -0.2430 -0.3017  0.2123
 6154SOL    HW118461   5.130   0.303   0.631  1.1599  0.3043  0.0862
 6154SOL    HW218462   5.229   0.189   0.618  0.1181 -0.7051  0.8401
 6155SOL     OW18463   3.861   5.583   2.681  0.1705 -0.0513  0.0247
 6155SOL    HW118464   3.773   5.575   2.644  0.0462  1.3703 -0.0304
 6155SOL    HW218465   3.849   5.628   2.764  1.0009  1.9219 -0.8590
 6156SOL     OW18466   5.590   2.969   4.281  0.6915 -0.6513  0.7334
 6156SOL    HW118467   5.603   3.040   4.218 -1.1940  0.1174  1.1628
 6156SOL    HW218468   5.547   2.900   4.231  0.1579 -0.4590  0.9243
 6157SOL     OW18469   5.342   2.881   0.089  0.3600  0.2486  0.1631
 6157SOL    HW118470   5.321   2.846   0.175 -0.3315  1.0819  0.3403
 6157SOL    HW218471   5.425   2.838   0.065 -0.3769 -1.3930  0.4161
 6158SOL     OW18472   1.011   2.758   2.608  0.3788 -0.8135  0.5963
 6158SOL    HW118473   0.989   2.666   2.592  0.1541 -0.6070 -0.3367
 6158SOL    HW218474   1.075   2.780   2.540 -0.3975  0.0211  0.1202
 6159SOL     OW18475   3.965   0.985   3.883  0.9333 -0.3858  0.0118
 6159SOL    HW118476   3.984   0.901   3.926  0.2709 -1.9468 -2.5204
 6159SOL    HW218477   4.049   1.013   3.847  1.2498  0.3235  1.2497
 6160SOL     OW18478   3.209   4.056   1.187  0.0606  0.4093 -0.1048
 6160SOL    HW118479   3.251   3.994   1.246 -2.8657 -2.3797 -0.6622
 6160SOL    HW218480   3.137   4.093   1.239 -0.3080  0.7073 -0.8128
 6161SOL     OW18481   1.909   3.381   0.969 -0.1862  0.4218 -0.0727
 6161SOL    HW118482   1.874   3.360   1.055 -3.2534  1.6551 -0.8777
 6161SOL    HW218483   1.935   3.297   0.931 -2.7336 -0.7097  0.5104
 6162SOL     OW18484   4.808   2.694   4.695 -0.2575  0.2667  0.1342
 6162SOL    HW118485   4.890   2.668   4.652  0.2628  1.0005  0.6449
 6162SOL    HW218486   4.769   2.757   4.634  0.6236  1.5289  0.8029
 6163SOL     OW18487   4.930   2.642   3.144 -0.2265  0.1826 -0.3329
 6163SOL    HW118488   5.025   2.640   3.134 -0.1974 -0.5223  0.0655
 6163SOL    HW218489   4.916   2.681   3.231 -0.3103  0.4150 -0.4487
 6164SOL     OW18490   2.428   4.559   0.882  0.2084 -0.4761 -0.0012
 6164SOL    HW118491   2.443   4.464   0.885  1.7233 -0.2949 -0.7169
 6164SOL    HW218492   2.491   4.591   0.817 -1.1454  0.8776 -0.7094
 6165SOL     OW18493   4.216   2.286   3.326 -0.1065  0.3772  0.1150
 6165SOL    HW118494   4.208   2.238   3.408  1.6613  0.1759  0.2037
 6165SOL    HW218495   4.253   2.370   3.350 -1.5190  1.1426 -0.2605
 6166SOL     OW18496   2.330   0.184   0.308 -0.4309  0.1157 -0.1025
 6166SOL    HW118497   2.251   0.221   0.268  0.2227 -0.1022 -1.6409
 6166SOL    HW218498   2.370   0.133   0.238  0.0058 -1.4699  1.2414
 6167SOL     OW18499   5.340   5.931   2.220  0.4175  0.0195  0.1586
 6167SOL    HW118500   5.389   5.860   2.179  0.0568 -0.0865 -0.0919
 6167SOL    HW218501   5.276   5.887   2.276 -1.5649  0.0425 -1.9587
 6168SOL     OW18502   3.727   4.825   3.098 -0.1687 -0.6863 -0.4097
 6168SOL    HW118503   3.699   4.856   3.184 -1.2030  0.2028 -1.0335
 6168SOL    HW218504   3.780   4.748   3.116 -0.7810 -0.8078  1.0025
 6169SOL     OW18505   1.568   0.119   3.257 -0.3495  0.1843 -0.4033
 6169SOL    HW118506   1.585   0.117   3.351 -1.2307 -1.4152 -0.2395
 6169SOL    HW218507   1.632   0.181   3.222  1.7302 -1.0921  0.9026
 6170SOL     OW18508   5.814   0.124   4.638  0.2125  0.2624 -0.2751
 6170SOL    HW118509   5.810   0.065   4.562  0.6913  0.4064 -0.4147
 6170SOL    HW218510   5.723   0.135   4.664  0.1184 -0.6066 -0.1960
 6171SOL     OW18511   4.820   3.274   1.428 -0.0475 -0.0973 -0.1390
 6171SOL    HW118512   4.826   3.262   1.523  1.1812 -1.2020 -0.3233
 6171SOL    HW218513   4.906   3.248   1.396  0.7088  3.2961 -1.3021
 6172SOL     OW18514   4.820   1.513   0.507  0.2865 -0.2861 -0.0679
 6172SOL    HW118515   4.813   1.484   0.416 -1.2758  1.9763 -0.7766
 6172SOL    HW218516   4.829   1.608   0.501  0.9979 -0.1557  2.1374
 6173SOL     OW18517   4.555   5.023   3.095 -0.0631 -0.5802 -0.7149
 6173SOL    HW118518   4.500   5.086   3.142 -1.1104 -0.9088 -1.4737
 6173SOL    HW218519   4.638   5.068   3.082  0.4417 -0.6089  1.7999
 6174SOL     OW18520   4.436   2.943   2.313  0.4736 -0.4860 -0.2279
 6174SOL    HW118521   4.349   2.903   2.310 -0.0795  0.6171  0.6059
 6174SOL    HW218522   4.496   2.871   2.290 -0.6728 -1.1351 -1.2924
 6175SOL     OW18523   3.467   4.093   2.060  0.7930 -0.4345 -0.5217
 6175SOL    HW118524   3.399   4.153   2.028  1.2117 -0.0262 -0.6734
 6175SOL    HW218525   3.468   4.022   1.997 -0.7355 -1.3796  0.4674
 6176SOL     OW18526   1.088   1.687   2.510  0.4590 -0.5845 -0.6119
 6176SOL    HW118527   1.060   1.597   2.493  0.9509 -0.5613 -1.6399
 6176SOL    HW218528   1.041   1.740   2.445 -0.5160  0.0392  0.5534
 6177SOL     OW18529   5.480   5.088   4.701 -0.1742  0.2180  0.4698
 6177SOL    HW118530   5.541   5.118   4.634 -0.5386 -0.9262 -0.4141
 6177SOL    HW218531   5.534   5.040   4.763 -0.0337  0.0576  0.2233
 6178SOL     OW18532   4.839   1.870   4.047  0.1363 -0.2705 -0.3842
 6178SOL    HW118533   4.819   1.874   3.953  0.4356 -0.2927 -0.4519
 6178SOL    HW218534   4.931   1.896   4.052 -0.0813  0.4526 -0.0177
 6179SOL     OW18535   5.921   5.544   3.213 -0.1261 -0.1394 -0.2497
 6179SOL    HW118536   5.953   5.462   3.176 -2.8164 -1.5360  0.2393
 6179SOL    HW218537   5.835   5.557   3.173 -0.9840  0.9166  1.7590
 6180SOL     OW18538   0.393   3.904   3.072  0.0898  0.2425  0.3980
 6180SOL    HW118539   0.468   3.963   3.060  0.2159  0.4703  2.0753
 6180SOL    HW218540   0.379   3.903   3.167 -1.9085  0.0404  0.1253
 6181SOL     OW18541   4.783   5.694   2.749 -0.0407 -0.2375  0.4717
 6181SOL    HW118542   4.821   5.756   2.810  0.8221 -0.6953  0.4187
 6181SOL    HW218543   4.801   5.608   2.787 -1.2153 -0.4729  0.5475
 6182SOL     OW18544   0.211   1.833   2.541  0.6975  0.7834 -0.4314
 6182SOL    HW118545   0.178   1.749   2.508 -1.8742  1.1897  0.8065
 6182SOL    HW218546   0.271   1.809   2.612 -0.8211 -0.0763  0.6231
 6183SOL     OW18547   2.389   3.583   3.060  0.2183  0.1812 -0.1693
 6183SOL    HW118548   2.310   3.606   3.010 -0.0871 -3.3520 -1.6539
 6183SOL    HW218549   2.458   3.636   3.022 -0.2028 -1.6295 -3.9401
 6184SOL     OW18550   4.332   4.794   1.633  0.3477  0.2334  0.0907
 6184SOL    HW118551   4.344   4.740   1.712 -1.4303  0.0160  0.2444
 6184SOL    HW218552   4.387   4.753   1.567  1.2136 -0.0764  0.9817
 6185SOL     OW18553   4.704   5.065   0.107 -0.3468  0.1719 -0.0400
 6185SOL    HW118554   4.747   5.022   0.180  0.9823 -0.8774 -1.3940
 6185SOL    HW218555   4.760   5.140   0.087 -1.0101  0.7851  0.3493
 6186SOL     OW18556   4.449   4.936   4.499  0.0328  0.4021 -0.5748
 6186SOL    HW118557   4.508   4.960   4.570 -0.2581  0.3282 -0.3039
 6186SOL    HW218558   4.503   4.938   4.421  0.6467 -0.6390 -0.1985
 6187SOL     OW18559   2.986   5.051   3.971  0.5260 -0.1825  0.2491
 6187SOL    HW118560   3.007   5.144   3.960  2.5393 -0.7854 -1.8732
 6187SOL    HW218561   2.896   5.050   4.002  0.1189  2.4615 -0.5791
 6188SOL     OW18562   2.224   5.073   3.935  0.3457  0.1159 -0.4139
 6188SOL    HW118563   2.305   5.092   3.982  0.5177 -0.3845 -0.4953
 6188SOL    HW218564   2.156   5.078   4.002  0.5747 -0.4610 -0.1300
 6189SOL     OW18565   3.290   0.774   4.486  0.3344 -0.7026  0.5633
 6189SOL    HW118566   3.336   0.841   4.435  0.7843 -0.3418  1.4149
 6189SOL    HW218567   3.224   0.822   4.536 -1.0103 -1.2210 -0.6545
 6190SOL     OW18568   2.850   0.547   3.927 -0.1122 -0.2355 -0.6032
 6190SOL    HW118569   2.944   0.561   3.938 -0.4470  0.3911  2.6182
 6190SOL    HW218570   2.843   0.458   3.894  1.6140 -0.6587  0.0532
 6191SOL     OW18571   4.437   2.155   3.264  0.2959 -0.0836 -0.2441
 6191SOL    HW118572   4.366   2.216   3.287  1.0531  1.1409 -1.0514
 6191SOL    HW218573   4.391   2.074   3.240 -0.6485 -0.7091  3.1170
 6192SOL     OW18574   4.131   3.629   0.100 -0.4216 -0.5529  0.4624
 6192SOL    HW118575   4.094   3.556   0.051  2.8167 -0.7448 -2.0398
 6192SOL    HW218576   4.083   3.706   0.070 -1.8673 -1.2662  0.8800
 6193SOL     OW18577   5.018   5.472   5.081  0.0738 -0.5711 -0.2071
 6193SOL    HW118578   4.935   5.454   5.036 -0.8621  1.9942  0.2959
 6193SOL    HW218579   5.085   5.452   5.016 -0.9605 -1.9637 -0.8921
 6194SOL     OW18580   3.134   3.645   3.906 -0.2296 -0.1891 -0.3523
 6194SOL    HW118581   3.171   3.683   3.985 -1.5394  0.7461 -0.1526
 6194SOL    HW218582   3.143   3.714   3.840  0.1187 -0.6610 -0.7993
 6195SOL     OW18583   4.590   3.847   1.586 -0.0166 -0.0249  0.0519
 6195SOL    HW118584   4.577   3.755   1.565 -0.5192  0.2041 -0.6972
 6195SOL    HW218585   4.679   3.866   1.557  0.3363 -0.4384  0.8411
 6196SOL     OW18586   5.031   2.919   1.263  0.1243 -0.0177 -0.0402
 6196SOL    HW118587   5.095   2.849   1.252 -1.0716 -1.2143  0.3472
 6196SOL    HW218588   4.970   2.886   1.330 -1.0078  0.9822 -0.5344
 6197SOL     OW18589   3.658   1.549   0.477  0.1520  0.2581  0.2274
 6197SOL    HW118590   3.569   1.517   0.463 -0.1000  1.1626 -0.3303
 6197SOL    HW218591   3.655   1.588   0.564  0.2022 -0.3292  0.5022
 6198SOL     OW18592   4.012   3.216   2.462 -0.2456 -0.2681  0.0781
 6198SOL    HW118593   4.006   3.219   2.366  0.5177 -0.2611  0.0245
 6198SOL    HW218594   3.940   3.272   2.492  1.2086  2.0999 -0.5720
 6199SOL     OW18595   2.602   2.321   2.670 -0.2441  0.2594 -0.2808
 6199SOL    HW118596   2.547   2.382   2.621 -0.9754 -0.0044  0.1908
 6199SOL    HW218597   2.615   2.362   2.755 -0.1305  0.0884 -0.2137
 6200SOL     OW18598   1.201   5.197   2.451 -0.5605  0.2614  0.3869
 6200SOL    HW118599   1.276   5.178   2.507 -1.8977  0.4577  2.3008
 6200SOL    HW218600   1.204   5.292   2.439 -1.0489  0.4007  1.2972
 6201SOL     OW18601   3.361   2.753   5.121  0.4265  0.2184  0.3482
 6201SOL    HW118602   3.394   2.680   5.173  0.0770  0.1624  0.4985
 6201SOL    HW218603   3.266   2.751   5.136  0.4769  1.0766  0.8341
 6202SOL     OW18604   4.949   0.929   4.520 -0.0649  0.0224  0.0371
 6202SOL    HW118605   5.015   0.909   4.453  1.1916  0.3676  1.1313
 6202SOL    HW218606   4.915   1.014   4.496  2.3854  1.4751  1.2777
 6203SOL     OW18607   4.804   0.633   0.929  0.5689  0.3165 -0.0671
 6203SOL    HW118608   4.846   0.704   0.978 -0.0810  0.9457 -0.3946
 6203SOL    HW218609   4.773   0.676   0.849  1.4238 -0.6439 -0.9355
 6204SOL     OW18610   5.154   4.157   4.520 -0.3275 -0.0131  0.5092
 6204SOL    HW118611   5.158   4.214   4.444 -0.3516  0.7489  1.0682
 6204SOL    HW218612   5.228   4.184   4.574 -0.5737 -0.2334  0.9643
 6205SOL     OW18613   4.593   4.693   3.528 -0.0741 -0.2274  0.0459
 6205SOL    HW118614   4.599   4.755   3.456 -0.3491  0.2038  0.3870
 6205SOL    HW218615   4.610   4.746   3.607 -0.6686 -0.5069  0.3692
 6206SOL     OW18616   1.013   4.610   3.369  0.3419 -0.2180  0.1182
 6206SOL    HW118617   1.019   4.678   3.302 -0.8232 -0.8730 -0.6939
 6206SOL    HW218618   1.078   4.545   3.342  1.1549  0.3466  0.6592
 6207SOL     OW18619   1.432   2.068   0.326  0.0425 -0.0092 -0.0888
 6207SOL    HW118620   1.373   2.000   0.358 -0.3990  0.3203 -0.1885
 6207SOL    HW218621   1.454   2.040   0.237 -0.5750  0.2569 -0.3268
 6208SOL     OW18622   5.655   0.930   2.161 -0.1743  0.6305  0.5331
 6208SOL    HW118623   5.560   0.924   2.146  0.1235  0.3842 -1.5285
 6208SOL    HW218624   5.684   0.839   2.160  0.3090  0.7791 -0.7199
 6209SOL     OW18625   4.203   3.393   5.376  0.2110 -0.3172 -0.5620
 6209SOL    HW118626   4.169   3.344   5.301  0.7112  0.2617 -1.1756
 6209SOL    HW218627   4.138   3.462   5.391  1.0833  0.8218 -1.7683
 6210SOL     OW18628   2.489   4.197   5.415 -0.7367  0.1382 -0.2461
 6210SOL    HW118629   2.531   4.273   5.455 -0.6155 -0.2748  0.4365
 6210SOL    HW218630   2.522   4.196   5.325 -0.7128  0.8695 -0.2477
 6211SOL     OW18631   4.649   4.000   3.304 -0.2871  0.2761  0.2509
 6211SOL    HW118632   4.648   3.905   3.316 -0.5936  0.2712  0.1991
 6211SOL    HW218633   4.738   4.027   3.329 -0.0473 -0.0791 -0.2077
 6212SOL     OW18634   2.482   5.097   5.455 -0.2648 -0.3437  0.6062
 6212SOL    HW118635   2.513   5.011   5.425  0.2902  0.1236 -0.1878
 6212SOL    HW218636   2.455   5.142   5.375 -0.7866  0.1359  1.0476
 6213SOL     OW18637   3.527   4.247   5.973 -0.1363  0.1344 -0.2323
 6213SOL    HW118638   3.565   4.324   6.016  1.3446 -0.5652 -0.2359
 6213SOL    HW218639   3.440   4.276   5.945 -0.3269  1.2613  1.3470
 6214SOL     OW18640   4.003   4.012   0.585 -0.4480  0.3452 -0.0013
 6214SOL    HW118641   4.003   3.923   0.549  0.2045  0.3225  0.0489
 6214SOL    HW218642   3.967   4.003   0.673  0.5529 -0.0306  0.3838
 6215SOL     OW18643   3.126   3.353   0.372 -0.2597 -0.0159  0.8169
 6215SOL    HW118644   3.165   3.403   0.300  0.3678 -1.8330 -0.1774
 6215SOL    HW218645   3.054   3.304   0.332  0.0400 -0.9846  1.4135
 6216SOL     OW18646   1.869   4.493   4.630  0.2701  1.0748  0.4982
 6216SOL    HW118647   1.793   4.536   4.670 -0.5468 -0.0308  0.1725
 6216SOL    HW218648   1.844   4.481   4.538 -0.3307 -1.6862  0.9127
 6217SOL     OW18649   2.919   4.822   2.857 -0.3593  0.1492 -0.2959
 6217SOL    HW118650   2.954   4.785   2.776 -1.2992 -0.8908 -0.2490
 6217SOL    HW218651   2.956   4.768   2.926 -0.2859  0.4609 -0.0884
 6218SOL     OW18652   4.037   3.629   2.330 -0.4137  0.2214 -0.1123
 6218SOL    HW118653   4.014   3.536   2.338 -1.3372  0.1297 -2.8160
 6218SOL    HW218654   4.126   3.634   2.363 -1.3229 -1.0234  2.8618
 6219SOL     OW18655   3.972   2.633   2.800 -0.1193 -0.3733  0.5345
 6219SOL    HW118656   3.948   2.541   2.801 -0.7405 -0.2309 -0.0768
 6219SOL    HW218657   4.026   2.643   2.722 -0.7422 -0.0696  0.1303
 6220SOL     OW18658   2.428   0.197   3.488  0.1074  0.1360  0.3773
 6220SOL    HW118659   2.358   0.137   3.463 -0.0278  0.5834 -0.3351
 6220SOL    HW218660   2.480   0.209   3.409  0.1588  0.9247  0.5182
 6221SOL     OW18661   3.825   1.069   5.055  0.4981 -0.5066  0.1802
 6221SOL    HW118662   3.767   1.126   5.006 -0.2347 -1.1489  0.2742
 6221SOL    HW218663   3.857   1.005   4.990  1.9339  0.4415 -0.1009
 6222SOL     OW18664   3.871   1.959   3.166  0.0990 -0.0433  0.3782
 6222SOL    HW118665   3.894   1.883   3.111  1.7098 -0.3025  1.3393
 6222SOL    HW218666   3.816   1.922   3.235  2.0842 -0.6817  1.6944
 6223SOL     OW18667   5.560   5.319   3.332 -0.3684  0.4330  0.1951
 6223SOL    HW118668   5.545   5.257   3.403  0.4970 -0.1721 -0.1196
 6223SOL    HW218669   5.625   5.380   3.367 -0.1145  0.2716  0.0103
 6224SOL     OW18670   2.254   4.441   4.932  0.2012  0.2558 -0.2680
 6224SOL    HW118671   2.212   4.399   4.856 -1.5250  0.0577  0.7289
 6224SOL    HW218672   2.301   4.369   4.976  0.4143  0.1720 -0.6317
 6225SOL     OW18673   4.957   5.273   4.767 -0.1733  0.0223 -0.1709
 6225SOL    HW118674   4.895   5.204   4.791  0.4957  0.1704  2.2490
 6225SOL    HW218675   5.033   5.226   4.732 -0.1122 -0.4183  0.5379
 6226SOL     OW18676   5.834   5.107   4.350 -0.3897 -0.1818 -0.6836
 6226SOL    HW118677   5.786   5.122   4.431  0.4621  0.9318 -0.3577
 6226SOL    HW218678   5.895   5.181   4.344  1.5704 -1.7372 -0.8719
 6227SOL     OW18679   5.194   4.507   5.447 -0.5413 -0.4781  0.2642
 6227SOL    HW118680   5.144   4.536   5.523 -0.4258  1.0050 -0.1883
 6227SOL    HW218681   5.151   4.549   5.372  1.3429  0.9012 -0.1337
 6228SOL     OW18682   3.588   3.077   3.569 -0.1129  0.4024  0.6031
 6228SOL    HW118683   3.573   3.086   3.663  0.8062  0.3932  0.7564
 6228SOL    HW218684   3.523   3.012   3.541  1.5811 -1.9953  1.8284
 6229SOL     OW18685   5.839   0.877   5.651 -0.1469  0.3101 -0.8483
 6229SOL    HW118686   5.871   0.822   5.723 -0.2562  1.2550 -0.0535
 6229SOL    HW218687   5.918   0.921   5.618 -0.0598 -0.2947 -1.4819
 6230SOL     OW18688   0.643   2.635   4.238  0.2774 -0.3234  0.2667
 6230SOL    HW118689   0.661   2.707   4.178  2.9827  0.3733  1.7681
 6230SOL    HW218690   0.595   2.676   4.310 -1.9445 -0.9428 -0.7555
 6231SOL     OW18691   2.266   0.968   5.398 -0.0576 -0.0952 -0.2637
 6231SOL    HW118692   2.265   0.877   5.370  1.6745 -0.3245  0.3043
 6231SOL    HW218693   2.234   0.966   5.488 -0.2467 -0.1062 -0.3309
 6232SOL     OW18694   5.278   2.529   3.623  0.0315  0.1144  0.0555
 6232SOL    HW118695   5.286   2.467   3.696  0.4437  1.0299  0.8079
 6232SOL    HW218696   5.340   2.599   3.643 -3.4408  3.1161  1.6546
 6233SOL     OW18697   3.944   0.752   5.730  0.4145  0.2073  0.1354
 6233SOL    HW118698   4.001   0.754   5.808 -0.4801  1.2357  0.7908
 6233SOL    HW218699   3.930   0.844   5.709  0.0259 -0.0597 -0.8010
 6234SOL     OW18700   2.268   3.238   5.222  0.4136 -0.7600 -0.5970
 6234SOL    HW118701   2.240   3.285   5.300  1.1849  1.1109 -1.3798
 6234SOL    HW218702   2.229   3.151   5.230  0.0202 -0.4237  1.5657
 6235SOL     OW18703   5.967   0.115   1.301  0.4687 -0.5792  0.4613
 6235SOL    HW118704   5.915   0.083   1.227  1.2668 -0.2434 -0.2654
 6235SOL    HW218705   5.991   0.036   1.349  1.7196 -1.0351 -0.8482
 6236SOL     OW18706   0.306   2.195   3.931  0.0255 -0.3695 -0.6686
 6236SOL    HW118707   0.374   2.258   3.955 -0.2641 -0.2732 -0.0669
 6236SOL    HW218708   0.353   2.113   3.914  0.2596 -0.4313  0.2078
 6237SOL     OW18709   4.366   5.101   3.968  0.2618 -0.0769 -0.5042
 6237SOL    HW118710   4.387   5.016   4.007  1.5281  0.0781 -0.7840
 6237SOL    HW218711   4.431   5.161   4.005 -1.2223  1.0034  0.4444
 6238SOL     OW18712   2.973   4.173   2.184  0.4450  0.2924  0.0473
 6238SOL    HW118713   3.001   4.257   2.222  0.8089 -0.2731  1.0708
 6238SOL    HW218714   2.967   4.190   2.090 -1.6051  2.0622  0.4247
 6239SOL     OW18715   5.233   4.025   3.580 -0.4162 -0.8780  0.0616
 6239SOL    HW118716   5.175   4.088   3.623 -2.2461 -1.5956 -1.2203
 6239SOL    HW218717   5.320   4.043   3.617 -1.1162  1.4293  0.7804
 6240SOL     OW18718   4.993   0.751   0.128 -0.0590  0.4138 -0.3588
 6240SOL    HW118719   5.005   0.690   0.055  0.1897  0.1754 -0.1185
 6240SOL    HW218720   4.961   0.698   0.200 -2.4113  0.9841 -0.8887
 6241SOL     OW18721   5.672   5.749   5.674 -0.1508  0.4277  0.3872
 6241SOL    HW118722   5.606   5.739   5.606  0.3395  0.9120 -0.1749
 6241SOL    HW218723   5.673   5.843   5.693  1.1200  0.6039 -0.3914
 6242SOL     OW18724   4.104   2.391   1.184  0.3077 -0.1774 -0.4117
 6242SOL    HW118725   4.194   2.360   1.174  0.1330 -1.6166  1.6934
 6242SOL    HW218726   4.099   2.419   1.275 -1.5242 -0.7569 -0.3003
 6243SOL     OW18727   2.430   4.434   4.483  0.3109  0.1157  0.3214
 6243SOL    HW118728   2.464   4.408   4.397  4.2502  3.3292  0.5800
 6243SOL    HW218729   2.447   4.359   4.539 -0.0098 -1.1300 -1.1735
 6244SOL     OW18730   0.938   3.299   3.911 -0.5233  0.6677  0.0313
 6244SOL    HW118731   1.006   3.255   3.962 -0.6514  1.2237  0.7037
 6244SOL    HW218732   0.909   3.234   3.847  0.9872  0.5885 -0.6029
 6245SOL     OW18733   2.809   2.901   0.504  0.2063 -0.1152 -0.1152
 6245SOL    HW118734   2.862   2.976   0.531 -2.6339  1.4199  1.7717
 6245SOL    HW218735   2.735   2.940   0.457 -0.7416 -1.8345 -0.1289
 6246SOL     OW18736   5.198   5.249   4.949 -0.5815  0.2286  0.5286
 6246SOL    HW118737   5.218   5.286   4.863 -1.2970  1.4320  0.8572
 6246SOL    HW218738   5.277   5.263   5.000 -0.3824  0.1039  0.2570
 6247SOL     OW18739   1.141   1.340   3.392  0.3493  0.1580  0.0617
 6247SOL    HW118740   1.053   1.365   3.362 -1.1695 -4.1918  0.2090
 6247SOL    HW218741   1.180   1.294   3.317  1.1167 -0.8812  1.0613
 6248SOL     OW18742   0.057   3.977   5.264  0.1996 -0.4220  0.5506
 6248SOL    HW118743   0.134   4.033   5.257  0.2327 -0.6118 -0.9010
 6248SOL    HW218744   0.070   3.929   5.346  1.5283 -0.3048  0.4336
 6249SOL     OW18745   3.238   1.335   3.925  0.0375  0.3269  0.3012
 6249SOL    HW118746   3.228   1.400   3.993  0.3539 -0.7967  1.4656
 6249SOL    HW218747   3.289   1.378   3.857  0.3326  1.2389  1.0907
 6250SOL     OW18748   2.270   1.717   4.504 -0.0486  0.5128  0.6449
 6250SOL    HW118749   2.191   1.673   4.472  0.3070  1.5198 -1.9019
 6250SOL    HW218750   2.341   1.654   4.486 -0.0040  0.5429  0.7151
 6251SOL     OW18751   4.815   1.331   3.460 -0.4099  0.0754  0.0049
 6251SOL    HW118752   4.892   1.376   3.493 -1.3708  1.9573 -0.2207
 6251SOL    HW218753   4.742   1.386   3.486 -1.7861 -2.0486  0.8862
 6252SOL     OW18754   1.472   1.864   0.681  0.1884  0.3918 -0.0467
 6252SOL    HW118755   1.399   1.925   0.694  0.1386  1.3977 -3.7120
 6252SOL    HW218756   1.430   1.778   0.671 -0.4573  0.8217 -1.2342
 6253SOL     OW18757   2.462   3.544   4.831  0.2971  0.8984 -0.2245
 6253SOL    HW118758   2.383   3.585   4.866  0.1851  0.4260  0.0763
 6253SOL    HW218759   2.534   3.598   4.864  0.1578  0.7796  0.2835
 6254SOL     OW18760   1.176   3.656   0.456  0.5462 -0.0299  0.1337
 6254SOL    HW118761   1.166   3.702   0.373  1.7213 -1.3382 -0.7885
 6254SOL    HW218762   1.270   3.660   0.475  0.4420 -0.6345  0.8435
 6255SOL     OW18763   1.290   3.486   3.154 -0.5047 -0.3677 -0.3498
 6255SOL    HW118764   1.302   3.411   3.096  1.1868 -0.5825  0.2210
 6255SOL    HW218765   1.365   3.483   3.213  0.6846  2.8038 -1.4782
 6256SOL     OW18766   5.683   2.390   3.481 -0.5016 -0.2386  0.9664
 6256SOL    HW118767   5.618   2.417   3.415  1.2661 -1.6453 -1.5367
 6256SOL    HW218768   5.707   2.470   3.526 -1.0302  1.0115 -0.8738
 6257SOL     OW18769   5.075   4.583   5.207 -0.6699 -0.3582 -0.2451
 6257SOL    HW118770   5.123   4.505   5.179  1.3793  0.9373 -0.5516
 6257SOL    HW218771   5.094   4.649   5.140 -0.6507  0.9996  1.0188
 6258SOL     OW18772   4.682   0.133   3.372  0.7008  0.1057 -0.2350
 6258SOL    HW118773   4.761   0.155   3.421  1.2131 -0.6478 -0.6985
 6258SOL    HW218774   4.707   0.056   3.321  0.3394  1.1685 -2.0892
 6259SOL     OW18775   5.150   3.198   5.002  0.1533  0.2820  0.3023
 6259SOL    HW118776   5.165   3.246   5.083 -0.0614  0.7714  0.0614
 6259SOL    HW218777   5.089   3.253   4.952  0.9465  0.4188 -0.5509
 6260SOL     OW18778   5.948   0.537   4.697  0.0270 -0.3743 -1.0706
 6260SOL    HW118779   5.860   0.548   4.734 -0.3305  0.9591 -2.1913
 6260SOL    HW218780   5.958   0.443   4.686 -0.4938 -0.6959  0.8050
 6261SOL     OW18781   5.344   4.029   2.782 -0.2765  0.1323  0.2262
 6261SOL    HW118782   5.329   4.075   2.865 -0.6400  0.1845  0.1353
 6261SOL    HW218783   5.318   4.093   2.715 -0.7540 -0.1911  0.0977
 6262SOL     OW18784   2.354   3.262   0.905 -0.0212 -0.2576 -0.0135
 6262SOL    HW118785   2.307   3.200   0.961 -0.3310  0.4460  0.5191
 6262SOL    HW218786   2.446   3.252   0.931 -0.0899 -0.3605  0.1934
 6263SOL     OW18787   3.119   4.534   1.341  0.3339 -0.2895 -0.2278
 6263SOL    HW118788   3.174   4.551   1.418  2.1550  1.5582 -1.8090
 6263SOL    HW218789   3.179   4.495   1.278 -1.3174 -2.5538 -0.5017
 6264SOL     OW18790   0.833   2.435   3.477  0.0934  0.1354  0.0735
 6264SOL    HW118791   0.827   2.500   3.407  1.0608 -0.3068 -0.4521
 6264SOL    HW218792   0.799   2.355   3.438 -1.9029  0.4815  0.9902
 6265SOL     OW18793   5.057   5.281   5.840 -0.5881 -0.3853 -0.4454
 6265SOL    HW118794   5.027   5.192   5.856 -0.4521 -0.4121 -0.3358
 6265SOL    HW218795   5.094   5.279   5.751 -0.0629 -0.5799 -0.2279
 6266SOL     OW18796   2.315   4.105   5.873 -0.0711 -0.5199 -0.1188
 6266SOL    HW118797   2.269   4.071   5.797 -0.1849 -3.2150  1.0483
 6266SOL    HW218798   2.246   4.129   5.935 -0.0742  3.4711 -1.3858
 6267SOL     OW18799   1.256   2.879   2.756  0.0759 -0.4358 -0.2330
 6267SOL    HW118800   1.199   2.850   2.827  1.7675 -0.8203  1.0470
 6267SOL    HW218801   1.289   2.798   2.717  0.5925 -0.2406 -0.2188
 6268SOL     OW18802   3.367   3.217   2.829 -0.2201  0.0466 -0.0218
 6268SOL    HW118803   3.384   3.311   2.843 -0.0002 -0.0153  0.1397
 6268SOL    HW218804   3.285   3.215   2.780  0.0148  0.3413 -0.4398
 6269SOL     OW18805   3.423   5.432   3.491 -0.7718  0.1204 -0.2228
 6269SOL    HW118806   3.340   5.402   3.530 -0.8189  1.3036  0.6337
 6269SOL    HW218807   3.415   5.527   3.488  0.5019  0.2399 -0.2744
 6270SOL     OW18808   3.583   3.535   5.981  0.1947  0.3114 -0.4828
 6270SOL    HW118809   3.597   3.563   5.891  0.3393  0.6578 -0.3535
 6270SOL    HW218810   3.524   3.600   6.018 -0.3860 -0.1875 -0.5118
 6271SOL     OW18811   3.845   5.464   1.597 -0.0358 -0.2048  0.2021
 6271SOL    HW118812   3.796   5.383   1.582 -0.1740 -0.1747  0.4739
 6271SOL    HW218813   3.818   5.492   1.685  1.2181 -0.7156  0.7738
 6272SOL     OW18814   1.065   4.357   1.586 -0.2219 -0.7712 -0.0953
 6272SOL    HW118815   1.076   4.323   1.675  1.9540 -1.6111 -0.6289
 6272SOL    HW218816   1.112   4.441   1.587 -1.9449  0.2474  0.0509
 6273SOL     OW18817   4.704   2.166   4.817 -0.0728  0.5760 -0.4074
 6273SOL    HW118818   4.738   2.081   4.790 -1.0081  0.1010 -0.1353
 6273SOL    HW218819   4.680   2.209   4.736  2.1651  1.3902 -0.7102
 6274SOL     OW18820   4.367   4.962   0.591 -0.2553  0.0535  0.0464
 6274SOL    HW118821   4.379   4.998   0.503  0.9188  2.1346  0.9870
 6274SOL    HW218822   4.387   4.868   0.581  2.2908  0.6628 -1.4592
 6275SOL     OW18823   5.192   2.579   2.804 -0.2670 -0.1110 -0.1723
 6275SOL    HW118824   5.101   2.559   2.822  0.2872 -2.4987  0.3474
 6275SOL    HW218825   5.208   2.545   2.716  0.3569 -0.5728  0.1134
 6276SOL     OW18826   5.103   3.982   4.799  0.0390  0.4749 -0.4115
 6276SOL    HW118827   5.040   4.030   4.744  0.0870  0.3240 -0.6002
 6276SOL    HW218828   5.070   3.893   4.801  1.5987 -0.2309 -2.6397
 6277SOL     OW18829   3.635   4.861   4.390 -0.2468  0.1832 -0.4889
 6277SOL    HW118830   3.621   4.806   4.313  0.2718  0.0727 -0.5106
 6277SOL    HW218831   3.557   4.916   4.395  0.3039  1.1391 -1.8862
 6278SOL     OW18832   4.151   5.240   3.450  0.5086 -0.1998 -0.2270
 6278SOL    HW118833   4.100   5.201   3.378  0.8658 -2.6618  0.7583
 6278SOL    HW218834   4.085   5.274   3.510  0.1993  1.5352 -1.4894
 6279SOL     OW18835   2.574   3.038   5.785  0.1548 -0.4525  0.3030
 6279SOL    HW118836   2.660   3.049   5.827 -0.3500  0.0630  1.2521
 6279SOL    HW218837   2.554   2.945   5.795 -1.2834  0.0555  4.0878
 6280SOL     OW18838   0.296   4.034   3.650  0.0182 -0.7371 -0.2400
 6280SOL    HW118839   0.292   4.059   3.743 -0.0101 -2.1208  0.1461
 6280SOL    HW218840   0.364   4.091   3.614 -1.9496  1.8941 -0.0914
 6281SOL     OW18841   4.464   0.007   4.803  0.5113 -0.8505 -0.4592
 6281SOL    HW118842   4.376  -0.026   4.821  0.3931 -0.8261 -0.9898
 6281SOL    HW218843   4.472   0.083   4.861  0.5279 -1.3847  0.2570
 6282SOL     OW18844   3.068   2.661   1.925  0.1054  0.0628 -0.0142
 6282SOL    HW118845   3.068   2.571   1.894  0.5025 -0.0583  0.3313
 6282SOL    HW218846   2.991   2.701   1.884  0.8304  0.0240 -1.4943
 6283SOL     OW18847   5.297   3.364   5.658  0.2215 -0.1992  0.1880
 6283SOL    HW118848   5.216   3.395   5.617  0.5367  0.6475  0.1834
 6283SOL    HW218849   5.355   3.441   5.657  1.5248 -1.1415 -1.0664
 6284SOL     OW18850   4.203   3.815   5.130 -0.3150  0.3254  0.2172
 6284SOL    HW118851   4.214   3.869   5.209 -1.1732  0.4100  0.2904
 6284SOL    HW218852   4.232   3.872   5.059 -1.9906  1.2276  0.2020
 6285SOL     OW18853   0.154   2.703   4.270 -0.2248  0.5547  0.0624
 6285SOL    HW118854   0.136   2.780   4.324  1.2346  0.5748  0.5570
 6285SOL    HW218855   0.134   2.732   4.180  0.0988  1.4427  0.2655
 6286SOL     OW18856   4.236   5.972   4.563 -0.3466  0.4516 -0.4342
 6286SOL    HW118857   4.214   5.897   4.619 -0.7776  1.9619  1.5188
 6286SOL    HW218858   4.332   5.974   4.565 -0.3321  0.0035 -0.4370
 6287SOL     OW18859   0.354   3.245   3.316  0.4432  0.5578 -0.1097
 6287SOL    HW118860   0.326   3.171   3.262  1.8254 -0.3451  0.3383
 6287SOL    HW218861   0.339   3.215   3.406 -2.6933  2.3766  0.1397
 6288SOL     OW18862   0.265   2.388   0.189 -0.3057  0.1666  0.1365
 6288SOL    HW118863   0.259   2.405   0.283 -2.3841  0.1208  0.0461
 6288SOL    HW218864   0.219   2.305   0.176  1.2441 -0.5962 -0.7535
 6289SOL     OW18865   4.288   4.705   3.033 -0.0541  0.5211  0.4183
 6289SOL    HW118866   4.273   4.795   3.060  1.9198  0.3034  2.5459
 6289SOL    HW218867   4.347   4.712   2.957 -0.2587  1.0044  0.3016
 6290SOL     OW18868   0.980   4.965   3.786 -0.1203 -0.3311  0.0080
 6290SOL    HW118869   1.057   5.012   3.820  0.8747 -2.2009  0.4837
 6290SOL    HW218870   1.012   4.921   3.707 -1.2614  0.4365 -0.9188
 6291SOL     OW18871   5.863   2.883   4.297  0.0278  0.4799  0.5032
 6291SOL    HW118872   5.772   2.913   4.299 -0.1530 -0.0757  0.7668
 6291SOL    HW218873   5.864   2.805   4.353  0.3967 -0.2598 -0.5074
 6292SOL     OW18874   5.525   0.984   4.073  0.1142  0.3543 -0.3221
 6292SOL    HW118875   5.469   1.053   4.037  1.6453  1.6010 -0.4228
 6292SOL    HW218876   5.613   1.006   4.041  0.7130 -1.3948  0.0363
 6293SOL     OW18877   2.096   1.681   0.006 -0.1559 -0.1198 -0.1856
 6293SOL    HW118878   2.114   1.772   0.032  0.3663  0.3014 -1.8702
 6293SOL    HW218879   2.008   1.683  -0.030 -0.8285 -0.6695  1.3742
 6294SOL     OW18880   0.585   5.850   1.017  0.4277 -0.0882 -0.2630
 6294SOL    HW118881   0.503   5.895   0.997 -1.3638 -2.0788  2.0866
 6294SOL    HW218882   0.643   5.920   1.048 -2.0175  0.8500  2.6415
 6295SOL     OW18883   5.383   2.891   4.448 -0.3584 -0.3965 -0.0204
 6295SOL    HW118884   5.330   2.969   4.430 -0.0591 -0.2796 -0.3907
 6295SOL    HW218885   5.467   2.909   4.407 -0.9027 -1.7192 -1.8353
 6296SOL     OW18886   3.763   5.476   4.849  0.8932 -0.2465 -0.3071
 6296SOL    HW118887   3.763   5.563   4.889  0.3155  0.3729 -1.5871
 6296SOL    HW218888   3.791   5.491   4.759  1.3981 -1.4899 -0.3730
 6297SOL     OW18889   1.479   0.592   0.155 -0.1279 -0.2131  0.1262
 6297SOL    HW118890   1.440   0.507   0.172  0.5188 -0.5233  0.0792
 6297SOL    HW218891   1.571   0.582   0.180  0.3930 -0.0779 -1.6267
 6298SOL     OW18892   1.865   0.594   2.628 -0.3817  0.1838 -0.3345
 6298SOL    HW118893   1.790   0.591   2.569 -1.5338  1.3995  1.0017
 6298SOL    HW218894   1.831   0.633   2.708  1.2359 -1.0122  0.9988
 6299SOL     OW18895   0.458   0.133   4.747  0.0062 -0.2589 -0.1774
 6299SOL    HW118896   0.390   0.170   4.803 -1.0004  0.0211 -1.5382
 6299SOL    HW218897   0.412   0.070   4.691  0.7131  0.4138 -1.5699
 6300SOL     OW18898   0.528   5.942   2.862 -0.1430 -0.5221  0.1839
 6300SOL    HW118899   0.569   6.020   2.899 -3.4240  1.7098 -0.4056
 6300SOL    HW218900   0.527   5.957   2.768  0.3221 -1.9321 -0.0689
 6301SOL     OW18901   0.786   1.171   1.558  0.5648 -0.9647  0.2161
 6301SOL    HW118902   0.793   1.251   1.611 -0.0503  0.5472 -1.8629
 6301SOL    HW218903   0.704   1.130   1.588 -0.1438  0.2341 -0.0221
 6302SOL     OW18904   4.312   1.524   4.308 -0.1870 -0.0644 -0.0783
 6302SOL    HW118905   4.348   1.522   4.219  0.0594 -1.6313  0.0258
 6302SOL    HW218906   4.380   1.566   4.361  0.9838 -1.7980 -0.1263
 6303SOL     OW18907   3.333   2.946   2.332  0.4757 -0.1690 -0.4218
 6303SOL    HW118908   3.426   2.923   2.329  0.5726  0.2209 -0.4706
 6303SOL    HW218909   3.300   2.922   2.245  0.9243  1.2874 -1.0360
 6304SOL     OW18910   4.253   4.360   2.869 -0.0641  0.5197 -0.2193
 6304SOL    HW118911   4.322   4.375   2.805  1.2821  0.6413  1.2069
 6304SOL    HW218912   4.284   4.287   2.922 -0.1248  1.7440  1.6052
 6305SOL     OW18913   4.511   2.624   3.108 -0.2038  0.3891 -0.5309
 6305SOL    HW118914   4.561   2.695   3.148 -0.1088  0.4065 -0.6775
 6305SOL    HW218915   4.468   2.665   3.033  2.2558 -0.3344 -2.4667
 6306SOL     OW18916   5.303   0.835   3.559 -0.3192  0.7009  0.6283
 6306SOL    HW118917   5.370   0.820   3.492 -1.4923  2.3160 -1.0100
 6306SOL    HW218918   5.349   0.882   3.629  0.4451  0.9901 -0.0623
 6307SOL     OW18919   4.871   3.971   5.016 -0.3519  0.3910 -0.5841
 6307SOL    HW118920   4.939   3.912   5.049 -1.1125  0.2366  0.7634
 6307SOL    HW218921   4.910   4.058   5.022 -0.2415  0.2980  0.1316
 6308SOL     OW18922   3.685   2.439   5.788  0.5385  0.3489 -0.2884
 6308SOL    HW118923   3.658   2.524   5.824  0.5588  0.3690 -0.3205
 6308SOL    HW218924   3.739   2.462   5.713  1.1254  0.3228  0.1138
 6309SOL     OW18925   4.839   4.966   0.567  0.1184  0.1858  0.4916
 6309SOL    HW118926   4.921   4.972   0.616 -0.2289  1.0281  0.9800
 6309SOL    HW218927   4.778   5.020   0.616 -0.8819 -0.8525  0.4215
 6310SOL     OW18928   0.211   2.536   5.882  0.4786  0.0463  0.6040
 6310SOL    HW118929   0.206   2.457   5.829  1.0555 -0.4073  1.2098
 6310SOL    HW218930   0.262   2.510   5.959 -0.7332  0.5690  1.6061
 6311SOL     OW18931   1.953   5.375   1.405 -0.5660 -0.1885  0.8310
 6311SOL    HW118932   2.016   5.329   1.348 -0.0186 -1.1147  2.1379
 6311SOL    HW218933   2.006   5.432   1.459 -0.9869  0.0145  1.0361
 6312SOL     OW18934   1.032   3.632   5.390  0.3967  0.8862  0.9002
 6312SOL    HW118935   1.006   3.540   5.379  0.2196  0.9573  0.7184
 6312SOL    HW218936   1.127   3.629   5.397  0.3111  0.5273  2.4567
 6313SOL     OW18937   0.250   3.499   3.209  0.1473  0.4033 -0.3448
 6313SOL    HW118938   0.272   3.440   3.281  1.8935 -0.9691 -1.9063
 6313SOL    HW218939   0.158   3.481   3.190 -0.4516  1.0550  1.7253
 6314SOL     OW18940   0.402   4.244   3.494  0.2963  0.6072 -0.3609
 6314SOL    HW118941   0.480   4.246   3.438 -0.3641  1.3359 -1.2916
 6314SOL    HW218942   0.336   4.199   3.441  0.7680 -2.4886  1.4219
 6315SOL     OW18943   4.763   5.222   0.364  0.0798 -0.1041  0.5633
 6315SOL    HW118944   4.848   5.229   0.409  0.1024 -1.2147  0.7237
 6315SOL    HW218945   4.751   5.128   0.350  0.5584  0.2048 -2.7069
 6316SOL     OW18946   5.272   5.601   5.301  0.0866  0.4717 -0.2264
 6316SOL    HW118947   5.177   5.593   5.297 -0.0087  1.4591 -0.2287
 6316SOL    HW218948   5.303   5.512   5.314 -0.8253  0.1040 -0.4824
 6317SOL     OW18949   0.359   3.727   3.839  0.4428 -0.0710  0.5839
 6317SOL    HW118950   0.321   3.776   3.766 -2.3357 -1.5981  0.8777
 6317SOL    HW218951   0.382   3.642   3.801  1.4278  0.0070  0.9707
 6318SOL     OW18952   5.974   3.409   3.194 -0.4451  0.0001 -0.2366
 6318SOL    HW118953   5.929   3.414   3.278 -0.7310 -0.1962 -0.3763
 6318SOL    HW218954   5.906   3.425   3.129 -0.4464 -0.8814 -0.4721
 6319SOL     OW18955   2.052   2.887   5.084  0.7087  0.5515 -0.2849
 6319SOL    HW118956   1.958   2.871   5.089  0.8824 -0.1615  1.3533
 6319SOL    HW218957   2.091   2.800   5.094  1.5615  1.0837  1.2436
 6320SOL     OW18958   2.269   4.013   5.426 -0.7793 -0.1579  0.3876
 6320SOL    HW118959   2.356   4.041   5.398 -1.3828  0.3553 -1.0952
 6320SOL    HW218960   2.215   4.021   5.347 -2.2207 -0.2560  1.3282
 6321SOL     OW18961   5.901   0.658   0.064 -0.4692  0.1414  0.1398
 6321SOL    HW118962   5.927   0.749   0.052 -0.9092  0.2633  0.1034
 6321SOL    HW218963   5.898   0.645   0.158 -1.0576  0.3563  0.1545
 6322SOL     OW18964   0.567   4.292   2.291 -0.1884 -0.7104  0.2988
 6322SOL    HW118965   0.525   4.261   2.211  0.2118 -0.2736 -0.0903
 6322SOL    HW218966   0.660   4.271   2.278  0.4121  2.2055 -0.7824
 6323SOL     OW18967   3.502   0.467   5.950  0.0625 -0.0588  0.0473
 6323SOL    HW118968   3.488   0.375   5.927 -2.3451  0.3928 -0.6231
 6323SOL    HW218969   3.530   0.508   5.868  0.3887 -0.0656  0.1567
 6324SOL     OW18970   4.271   5.711   5.479  0.0386 -0.0910 -0.5788
 6324SOL    HW118971   4.292   5.721   5.572  2.7355  0.7293 -1.1951
 6324SOL    HW218972   4.326   5.638   5.450  2.0867  1.9709 -2.2437
 6325SOL     OW18973   5.673   3.322   4.949 -0.3682  0.2538 -0.2815
 6325SOL    HW118974   5.585   3.328   4.987 -0.4449 -0.5259 -0.3315
 6325SOL    HW218975   5.725   3.385   5.000 -1.1822  1.5226 -0.9463
 6326SOL     OW18976   4.748   1.333   5.733 -0.4174  0.3140  0.3122
 6326SOL    HW118977   4.662   1.375   5.728 -0.3194  0.4404 -0.6419
 6326SOL    HW218978   4.807   1.394   5.688 -0.0767 -0.3543 -0.1815
 6327SOL     OW18979   3.932   1.819   2.421  0.0876  0.4951  0.0028
 6327SOL    HW118980   4.025   1.800   2.432 -0.2048 -0.6214  0.7082
 6327SOL    HW218981   3.913   1.884   2.489  0.2200  0.2428  0.2843
 6328SOL     OW18982   0.538   4.575   2.856 -0.0994  0.2315 -0.9933
 6328SOL    HW118983   0.453   4.569   2.812  0.4578  0.4421 -2.1080
 6328SOL    HW218984   0.597   4.613   2.791  0.8488  0.1180 -0.2213
 6329SOL     OW18985   3.834   4.751   5.657  0.6392  0.1250  0.3116
 6329SOL    HW118986   3.902   4.786   5.600  0.7119  0.9496  0.8795
 6329SOL    HW218987   3.753   4.761   5.607  0.8857 -0.5675 -0.2404
 6330SOL     OW18988   1.539   3.646   4.081 -0.6203 -0.0589  0.0739
 6330SOL    HW118989   1.498   3.720   4.035 -0.2527 -0.0471 -0.2397
 6330SOL    HW218990   1.586   3.687   4.154 -0.0122  0.0722 -0.3847
 6331SOL     OW18991   0.372   2.545   1.731 -0.2355  0.3203 -0.1579
 6331SOL    HW118992   0.423   2.545   1.812  1.7296  1.8907 -1.3200
 6331SOL    HW218993   0.374   2.453   1.703  2.5402  0.3895 -0.4595
 6332SOL     OW18994   3.493   4.102   1.520  0.3664 -0.4440  0.2388
 6332SOL    HW118995   3.432   4.047   1.469  0.2725  0.2928 -0.4620
 6332SOL    HW218996   3.576   4.095   1.473  1.3295 -2.7491  2.0853
 6333SOL     OW18997   5.654   1.421   0.600 -0.3922 -0.0636  0.0492
 6333SOL    HW118998   5.674   1.514   0.610  0.8352 -0.1435 -1.2610
 6333SOL    HW218999   5.570   1.418   0.554 -0.0747  0.4136 -0.5642
 6334SOL     OW19000   3.205   4.887   0.750 -0.1315  0.1039  0.0849
 6334SOL    HW119001   3.153   4.838   0.686  0.8662 -3.8695  1.9772
 6334SOL    HW219002   3.144   4.951   0.786 -2.5517 -1.6626 -0.5670
 6335SOL     OW19003   5.682   0.960   4.976  0.7171  0.7173 -0.2554
 6335SOL    HW119004   5.679   0.915   4.892 -0.9732  1.7420 -0.7815
 6335SOL    HW219005   5.776   0.965   4.997  1.0453 -1.5053 -0.9647
 6336SOL     OW19006   3.008   0.525   2.377  0.0525  0.4352 -0.3917
 6336SOL    HW119007   2.972   0.567   2.299 -0.8002  0.1173 -0.1747
 6336SOL    HW219008   2.935   0.519   2.438  0.2405 -0.9861 -0.2627
 6337SOL     OW19009   4.624   3.949   4.057 -0.0082  0.5965  0.2910
 6337SOL    HW119010   4.703   3.926   4.106  0.9263  2.2093 -0.4036
 6337SOL    HW219011   4.637   4.040   4.031 -1.6531  0.5829 -0.7053
 6338SOL     OW19012   4.109   3.751   0.570  0.1229  0.9064  0.3167
 6338SOL    HW119013   4.159   3.707   0.501 -0.2444  0.8274  0.0983
 6338SOL    HW219014   4.171   3.761   0.642  0.1792 -0.1104  0.4243
 6339SOL     OW19015   3.757   4.436   0.601 -0.5657 -0.0273 -0.1226
 6339SOL    HW119016   3.808   4.506   0.642  0.0962  0.0886 -1.1094
 6339SOL    HW219017   3.694   4.481   0.545  0.4598 -0.1857 -1.4726
 6340SOL     OW19018   4.917   4.069   3.837 -0.0488 -0.4092  0.4504
 6340SOL    HW119019   4.853   4.114   3.782  0.9262 -0.7084 -0.9731
 6340SOL    HW219020   4.893   4.093   3.926 -1.5744  0.2164 -0.1078
 6341SOL     OW19021   3.326   3.987   5.707  0.4525 -0.1524 -0.2214
 6341SOL    HW119022   3.394   3.993   5.640  0.2642 -3.5095 -0.8853
 6341SOL    HW219023   3.246   4.016   5.663  0.8191  0.3360 -0.5757
 6342SOL     OW19024   5.371   0.685   5.525 -0.0481 -0.2132 -0.0322
 6342SOL    HW119025   5.452   0.708   5.571  0.2185  0.2055 -0.7049
 6342SOL    HW219026   5.377   0.730   5.441  0.0144 -1.9021 -0.9848
 6343SOL     OW19027   5.600   5.913   4.506  0.2036  0.8955  0.4488
 6343SOL    HW119028   5.558   5.849   4.448 -1.1470  1.8649  0.2974
 6343SOL    HW219029   5.604   5.993   4.453  1.1088  1.1722  0.9161
 6344SOL     OW19030   4.492   4.493   5.504  0.3891  0.0532 -0.5368
 6344SOL    HW119031   4.423   4.542   5.548  0.8313  0.4773 -0.2987
 6344SOL    HW219032   4.501   4.413   5.556  1.5666  0.9806  0.7546
 6345SOL     OW19033   5.568   4.588   4.752  0.1327 -0.1472  0.2306
 6345SOL    HW119034   5.640   4.612   4.811 -1.2415  3.3435  0.7396
 6345SOL    HW219035   5.492   4.635   4.787 -2.0929 -2.4940 -1.1490
 6346SOL     OW19036   5.164   2.278   5.403 -0.1251 -0.4463  0.0119
 6346SOL    HW119037   5.107   2.339   5.357 -0.2840 -0.4671  0.1813
 6346SOL    HW219038   5.251   2.319   5.399 -0.1446 -0.4313 -0.2707
 6347SOL     OW19039   1.650   5.430   5.058 -0.1594 -0.4571 -0.5743
 6347SOL    HW119040   1.634   5.349   5.105 -0.6856  0.4596  0.9157
 6347SOL    HW219041   1.574   5.485   5.079  0.1658  0.4187 -1.5725
 6348SOL     OW19042   4.769   3.615   0.635 -0.3132  0.2398  0.2427
 6348SOL    HW119043   4.837   3.662   0.683  0.9215 -0.0809 -1.1247
 6348SOL    HW219044   4.741   3.546   0.695  2.1397 -0.9934  0.1100
 6349SOL     OW19045   0.641   5.613   4.990  0.3809  0.4757  0.2122
 6349SOL    HW119046   0.600   5.551   5.050  2.0717 -1.5013 -0.5352
 6349SOL    HW219047   0.667   5.560   4.914  1.8174  2.1069 -0.5180
 6350SOL     OW19048   5.155   5.284   5.594  0.0847  0.1405  0.0903
 6350SOL    HW119049   5.157   5.306   5.500 -0.9490 -0.5547 -0.1126
 6350SOL    HW219050   5.212   5.208   5.601  0.6348  0.5503  0.1363
 6351SOL     OW19051   5.307   5.459   4.499  0.0870  0.3173  0.0205
 6351SOL    HW119052   5.248   5.529   4.528  1.9321  1.3039  1.5592
 6351SOL    HW219053   5.272   5.380   4.540 -1.3646  0.4864 -0.8177
 6352SOL     OW19054   2.533   1.344   0.409 -0.4087  0.1585 -0.5973
 6352SOL    HW119055   2.505   1.431   0.381  1.4564  1.2819  0.7265
 6352SOL    HW219056   2.598   1.317   0.344  1.5748  1.3753  0.7354
 6353SOL     OW19057   1.860   5.972   3.682  0.0528  0.5505  0.5625
 6353SOL    HW119058   1.817   5.932   3.757  0.5422 -0.7070  0.1977
 6353SOL    HW219059   1.953   5.953   3.694 -0.0347 -1.4917 -1.3479
 6354SOL     OW19060   0.612   3.679   0.291  0.7204 -0.4242 -0.1857
 6354SOL    HW119061   0.597   3.770   0.265  0.4420  0.0711  1.5905
 6354SOL    HW219062   0.527   3.637   0.282  1.0264 -0.7529 -1.8111
 6355SOL     OW19063   1.069   5.106   3.107  0.1071  0.4492  0.4777
 6355SOL    HW119064   1.039   5.183   3.155 -0.1603  1.4146 -1.1652
 6355SOL    HW219065   1.020   5.109   3.024  0.2893 -1.3412  0.2589
 6356SOL     OW19066   3.487   0.749   5.445  0.3728  0.6743  0.5004
 6356SOL    HW119067   3.502   0.679   5.382  2.9856 -0.5372  2.2826
 6356SOL    HW219068   3.450   0.706   5.521  0.6802  1.4533  1.1137
 6357SOL     OW19069   4.631   2.355   3.552 -0.2358 -0.2147 -0.0580
 6357SOL    HW119070   4.699   2.317   3.497  0.1422  1.1987 -0.6054
 6357SOL    HW219071   4.574   2.404   3.492 -0.2716  0.7041  0.6848
 6358SOL     OW19072   5.310   5.796   5.751  0.1600  0.2573 -0.5052
 6358SOL    HW119073   5.281   5.881   5.717 -0.0811 -0.3225 -1.8073
 6358SOL    HW219074   5.252   5.733   5.708 -1.1904 -0.4507  2.1427
 6359SOL     OW19075   0.343   2.450   4.692 -0.1879 -0.0141  0.1686
 6359SOL    HW119076   0.302   2.532   4.663  0.3818  0.1107 -0.3147
 6359SOL    HW219077   0.363   2.465   4.784  1.0538  0.8912 -0.2187
 6360SOL     OW19078   4.356   3.960   4.288 -0.0835 -0.2768  0.1479
 6360SOL    HW119079   4.416   4.034   4.277 -0.9575  0.5976  1.0912
 6360SOL    HW219080   4.406   3.884   4.258  1.0896  0.5909 -0.1536
 6361SOL     OW19081   1.825   4.273   3.913 -0.1647  0.2175  0.2736
 6361SOL    HW119082   1.851   4.365   3.920 -2.3138  1.0384 -1.4538
 6361SOL    HW219083   1.814   4.245   4.004  2.0494  1.1604  0.8874
 6362SOL     OW19084   4.026   3.344   4.718 -0.0376 -0.0583 -0.4215
 6362SOL    HW119085   4.034   3.272   4.780 -0.5753 -0.1322 -0.4358
 6362SOL    HW219086   4.116   3.375   4.705  0.4162 -1.7474 -1.6238
 6363SOL     OW19087   5.365   0.538   3.389 -0.2668 -0.2244  0.0013
 6363SOL    HW119088   5.343   0.455   3.347 -0.1141 -0.2841  0.0373
 6363SOL    HW219089   5.454   0.526   3.421  0.7476  0.7982 -2.1984
 6364SOL     OW19090   1.621   5.156   1.483 -0.5895 -0.0146 -0.0448
 6364SOL    HW119091   1.699   5.113   1.518 -0.5641 -1.2349 -1.5310
 6364SOL    HW219092   1.551   5.090   1.492 -0.7541 -0.0756 -1.5156
 6365SOL     OW19093   3.518   1.898   3.635  0.0149  0.0703 -0.1148
 6365SOL    HW119094   3.521   1.803   3.648  0.9234  0.1604  0.4664
 6365SOL    HW219095   3.425   1.918   3.624 -0.1203 -1.0083 -1.2634
 6366SOL     OW19096   3.101   3.757   2.166  0.0307  0.1606  0.4868
 6366SOL    HW119097   3.180   3.706   2.148 -0.4296  0.0424 -1.2972
 6366SOL    HW219098   3.034   3.718   2.110 -1.2078  0.5239  1.6725
 6367SOL     OW19099   0.607   3.164   0.535  0.4976 -0.1906 -0.3112
 6367SOL    HW119100   0.595   3.259   0.534  0.8143 -0.1094 -2.8305
 6367SOL    HW219101   0.696   3.152   0.567  0.8802  0.4563 -1.0938
 6368SOL     OW19102   0.322   3.550   0.662 -0.2275  0.2252 -0.3502
 6368SOL    HW119103   0.381   3.595   0.722  1.5811  0.2141 -2.0521
 6368SOL    HW219104   0.240   3.601   0.667  0.7588  1.8496  0.0878
 6369SOL     OW19105   0.176   4.197   3.361 -0.2303 -0.0431 -0.5237
 6369SOL    HW119106   0.180   4.113   3.314 -0.4330  0.4928 -1.5214
 6369SOL    HW219107   0.113   4.182   3.432 -0.2980 -0.7214 -0.7205
 6370SOL     OW19108   4.247   3.644   4.855  0.0295  0.0275  0.3336
 6370SOL    HW119109   4.159   3.648   4.817  0.0235 -0.5344  0.2811
 6370SOL    HW219110   4.286   3.566   4.815 -0.6356 -1.7162  2.8785
 6371SOL     OW19111   4.612   0.175   0.165  0.7108 -0.5130 -0.6543
 6371SOL    HW119112   4.613   0.121   0.244 -1.3163 -0.2724 -0.3963
 6371SOL    HW219113   4.607   0.112   0.093 -2.0916 -0.7936 -0.3407
 6372SOL     OW19114   5.446   5.283   5.116 -0.3788 -0.4126  0.1250
 6372SOL    HW119115   5.426   5.307   5.206  1.2859 -0.4098  0.5335
 6372SOL    HW219116   5.537   5.312   5.103  0.8852 -4.0062 -0.1907
 6373SOL     OW19117   4.765   4.282   5.449  0.1912  0.0103 -0.4781
 6373SOL    HW119118   4.801   4.199   5.480 -0.0866  0.2088  0.4017
 6373SOL    HW219119   4.689   4.257   5.397 -0.4223 -0.2703  0.5188
 6374SOL     OW19120   4.407   5.048   0.339  0.5314  0.2431 -0.1613
 6374SOL    HW119121   4.445   5.131   0.309 -1.2134  0.5391 -1.7295
 6374SOL    HW219122   4.352   5.019   0.267 -2.5619  0.0621  2.0641
 6375SOL     OW19123   2.726   3.378   1.108  0.3428  0.2127  0.1713
 6375SOL    HW119124   2.697   3.408   1.022 -1.0921  0.3944  0.7027
 6375SOL    HW219125   2.820   3.361   1.097  0.1103 -0.1020 -1.5205
 6376SOL     OW19126   2.888   4.216   5.408 -1.2424 -0.0967  0.3308
 6376SOL    HW119127   2.840   4.177   5.334 -0.5369 -2.0880  0.8696
 6376SOL    HW219128   2.833   4.197   5.484 -1.0030  0.1964  0.5748
 6377SOL     OW19129   1.193   4.727   2.433 -0.5462  0.2917  0.1321
 6377SOL    HW119130   1.234   4.790   2.492  0.3613  0.4743 -0.6713
 6377SOL    HW219131   1.240   4.645   2.449 -0.8653  0.1299  0.2538
 6378SOL     OW19132   3.428   0.106   3.793  0.2765  0.6798 -0.2867
 6378SOL    HW119133   3.377   0.163   3.735 -2.2887 -0.8261  0.3377
 6378SOL    HW219134   3.453   0.162   3.866  0.7771  1.8026 -1.2868
 6379SOL     OW19135   0.624   4.457   5.397  0.0199  0.3782 -0.6108
 6379SOL    HW119136   0.631   4.362   5.409 -0.6542  0.4903  0.8963
 6379SOL    HW219137   0.643   4.471   5.304  0.8653 -1.1459 -0.6942
 6380SOL     OW19138   4.191   4.567   4.480  0.0959 -0.6652  0.1701
 6380SOL    HW119139   4.128   4.585   4.550 -1.1210 -1.7624 -0.5793
 6380SOL    HW219140   4.154   4.609   4.403  0.4411 -1.0486 -0.2110
 6381SOL     OW19141   4.026   3.501   4.047  0.0491  0.0095 -0.4054
 6381SOL    HW119142   3.953   3.455   4.006  0.3745 -0.8818  0.0043
 6381SOL    HW219143   4.028   3.587   4.003 -2.4625  0.8300  0.9151
 6382SOL     OW19144   3.874   4.348   4.138  0.4215 -0.4583  0.3528
 6382SOL    HW119145   3.968   4.331   4.135  1.1362  2.8295  0.6590
 6382SOL    HW219146   3.858   4.381   4.227 -0.6371  0.9027 -0.3140
 6383SOL     OW19147   3.382   4.928   1.258 -0.1541 -0.2875 -0.2006
 6383SOL    HW119148   3.448   4.979   1.211  1.7691 -0.6942  1.9203
 6383SOL    HW219149   3.359   4.982   1.334 -2.3870 -0.1375 -0.8922
 6384SOL     OW19150   5.098   4.854   0.242 -0.0375 -0.3148  0.0513
 6384SOL    HW119151   5.157   4.905   0.297  1.2038 -2.0981  0.4823
 6384SOL    HW219152   5.138   4.854   0.155 -1.3561  1.4736 -0.6155
 6385SOL     OW19153   0.602   4.117   3.061  0.1156 -0.0638 -0.4958
 6385SOL    HW119154   0.663   4.078   2.998  0.7604 -1.2666  0.8299
 6385SOL    HW219155   0.652   4.188   3.102 -0.4225  0.9548 -1.5561
 6386SOL     OW19156   6.004   5.932   3.927  0.4110 -0.3978  0.1020
 6386SOL    HW119157   6.035   6.000   3.868 -0.1636  0.0295  0.2903
 6386SOL    HW219158   5.926   5.896   3.885 -0.0416 -0.0430  0.6331
 6387SOL     OW19159   4.337   5.359   3.675  0.0784 -0.2412  0.5163
 6387SOL    HW119160   4.361   5.276   3.633  0.3551  0.2859 -0.3936
 6387SOL    HW219161   4.241   5.356   3.681 -0.1613  0.4759 -1.9554
 6388SOL     OW19162   5.728   3.596   1.667  0.1906 -0.6097 -0.2243
 6388SOL    HW119163   5.810   3.554   1.643  0.6438 -0.0539  0.3225
 6388SOL    HW219164   5.752   3.662   1.732 -0.5680  0.1568 -0.6898
 6389SOL     OW19165   2.384   2.975   3.711  0.1242 -0.2841  0.4356
 6389SOL    HW119166   2.334   2.951   3.789 -0.0622 -1.2308  0.0430
 6389SOL    HW219167   2.379   2.898   3.655  0.5620  0.2497 -0.3604
 6390SOL     OW19168   3.706   5.261   4.405  0.6232 -0.2296  0.3171
 6390SOL    HW119169   3.763   5.200   4.358  0.0077 -0.9888  0.5293
 6390SOL    HW219170   3.642   5.289   4.340  0.7183 -0.0500  0.3005
 6391SOL     OW19171   5.841   3.168   5.614  0.1968 -0.2744 -0.1166
 6391SOL    HW119172   5.764   3.224   5.608  0.5781  0.2942  0.1937
 6391SOL    HW219173   5.815   3.098   5.674  0.8296  1.4852  2.3875
 6392SOL     OW19174   4.601   2.561   2.367  0.2172 -0.0855 -0.0508
 6392SOL    HW119175   4.651   2.619   2.424  1.5879 -1.3231  0.0518
 6392SOL    HW219176   4.594   2.609   2.285  0.6739  0.5399  0.2641
 6393SOL     OW19177   0.557   5.052   3.756  0.5843 -0.0426 -0.1104
 6393SOL    HW119178   0.545   5.129   3.699  2.5673  0.1159 -0.4128
 6393SOL    HW219179   0.610   5.085   3.829  0.6541 -0.9212  0.2395
 6394SOL     OW19180   5.920   4.172   1.065  0.0135 -0.0558  0.5156
 6394SOL    HW119181   5.998   4.176   1.009 -0.5275 -0.0546 -0.2587
 6394SOL    HW219182   5.952   4.196   1.152  0.9208 -0.2840  0.2606
 6395SOL     OW19183   1.780   5.223   1.929 -0.7332  0.5099 -0.0973
 6395SOL    HW119184   1.837   5.279   1.877  1.6210  0.3204  2.1299
 6395SOL    HW219185   1.812   5.134   1.913 -2.1581  0.0821 -0.8279
 6396SOL     OW19186   5.616   4.607   2.953 -0.4837 -0.1356 -0.5130
 6396SOL    HW119187   5.703   4.575   2.932 -0.2189  0.3340 -0.1641
 6396SOL    HW219188   5.622   4.702   2.944 -0.5163  0.0474  1.0232
 6397SOL     OW19189   0.632   2.795   4.911  0.5389 -0.4033 -0.0390
 6397SOL    HW119190   0.600   2.798   5.001  0.1553 -0.9979 -0.1480
 6397SOL    HW219191   0.677   2.711   4.905 -2.6943 -2.2297 -1.4421
 6398SOL     OW19192   0.403   3.830   2.804 -0.2141  0.1889 -0.1774
 6398SOL    HW119193   0.308   3.836   2.795 -0.3595 -1.0107  0.3641
 6398SOL    HW219194   0.420   3.846   2.897  0.2928  1.9884 -0.5268
 6399SOL     OW19195   4.151   4.535   3.528  0.1088 -0.5285 -0.1466
 6399SOL    HW119196   4.177   4.591   3.455  1.5930 -0.4342  0.4198
 6399SOL    HW219197   4.080   4.583   3.571  0.9608  0.6751 -0.0233
 6400SOL     OW19198   5.303   5.407   5.926 -0.0394 -0.2522  0.0529
 6400SOL    HW119199   5.232   5.351   5.895  1.2160 -1.7774 -0.1663
 6400SOL    HW219200   5.333   5.454   5.848  0.4174 -1.0182 -0.2400
 6401SOL     OW19201   2.187   3.202   0.046 -0.4674 -0.1278  0.1126
 6401SOL    HW119202   2.110   3.254   0.025  0.7590  1.1703 -1.4066
 6401SOL    HW219203   2.209   3.159  -0.036 -0.1259 -1.2870  0.7888
 6402SOL     OW19204   5.074   3.814   5.063 -0.4361  0.0319 -0.3032
 6402SOL    HW119205   5.103   3.823   5.154 -1.4830  1.7124 -0.1001
 6402SOL    HW219206   5.153   3.788   5.015  0.4713  0.6042  0.8464
 6403SOL     OW19207   5.911   5.121   5.765  0.4573 -0.0049  0.7886
 6403SOL    HW119208   5.820   5.150   5.760  1.1768  2.4214  0.4971
 6403SOL    HW219209   5.940   5.146   5.853  0.4142 -2.3528  1.5468
 6404SOL     OW19210   3.732   4.998   2.355 -0.2780 -0.0541 -0.2877
 6404SOL    HW119211   3.784   5.075   2.332 -0.0567 -0.1956 -0.2611
 6404SOL    HW219212   3.796   4.933   2.385 -0.3106 -0.7054 -1.5163
 6405SOL     OW19213   5.026   4.167   0.066 -0.3932 -0.5105  0.4171
 6405SOL    HW119214   5.019   4.076   0.095  0.9207 -0.2643  1.6296
 6405SOL    HW219215   4.937   4.201   0.072 -1.2164 -2.0836 -1.4912
 6406SOL     OW19216   2.907   4.697   1.325  0.3623  0.3299 -0.3920
 6406SOL    HW119217   2.953   4.774   1.292  0.0783 -0.1252 -1.9244
 6406SOL    HW219218   2.974   4.629   1.331  0.4029  0.3967 -0.0502
 6407SOL     OW19219   4.749   4.267   2.043  0.2969 -0.1717 -0.2029
 6407SOL    HW119220   4.694   4.302   2.113 -0.4687 -0.3006 -0.7253
 6407SOL    HW219221   4.694   4.274   1.965  0.8948 -0.6441 -0.6660
 6408SOL     OW19222   0.831   4.999   3.450  0.2629 -0.3015  0.6163
 6408SOL    HW119223   0.839   5.082   3.496  1.5559 -1.1287  1.9767
 6408SOL    HW219224   0.744   5.001   3.411  0.2263  1.6212  0.7318
 6409SOL     OW19225   0.296   4.970   3.315  0.2280  0.0790  0.4555
 6409SOL    HW119226   0.362   5.033   3.344  0.6838 -0.6838  1.1026
 6409SOL    HW219227   0.320   4.888   3.358 -0.0749 -0.6624 -0.7482
 6410SOL     OW19228   5.326   2.067   3.062 -0.1419  0.5131  0.0070
 6410SOL    HW119229   5.323   2.113   3.146  0.5393  1.4815 -0.4793
 6410SOL    HW219230   5.236   2.039   3.046  0.0369 -1.4850  2.0056
 6411SOL     OW19231   1.713   2.696   4.041  0.2154  0.2741 -0.6562
 6411SOL    HW119232   1.712   2.756   3.967 -0.5260 -0.8953 -1.6372
 6411SOL    HW219233   1.795   2.647   4.031  0.1979  0.2346 -0.6057
 6412SOL     OW19234   5.000   3.502   4.447  0.2145  0.9451 -0.3540
 6412SOL    HW119235   5.025   3.577   4.394  1.8755 -0.3681 -1.5530
 6412SOL    HW219236   5.012   3.426   4.389 -1.5688 -0.2596  0.7380
 6413SOL     OW19237   4.763   4.455   0.143  0.3313  0.0343  0.2802
 6413SOL    HW119238   4.787   4.442   0.051 -0.8811 -1.7741  0.1662
 6413SOL    HW219239   4.742   4.368   0.175  0.0535  0.7214  2.1105
 6414SOL     OW19240   1.256   5.215   3.513 -0.0654 -0.1057  0.3462
 6414SOL    HW119241   1.241   5.201   3.606  0.9934 -1.5479  0.3361
 6414SOL    HW219242   1.283   5.129   3.480 -1.6336  0.0726 -1.5504
 6415SOL     OW19243   3.458   4.638   4.647  0.0004 -0.2669  0.4158
 6415SOL    HW119244   3.459   4.702   4.718 -2.4568  0.8859 -0.4768
 6415SOL    HW219245   3.394   4.673   4.585  0.6967 -2.1814 -1.4810
 6416SOL     OW19246   0.385   3.563   4.504  0.0564  0.2361 -0.2403
 6416SOL    HW119247   0.342   3.486   4.464  0.5730  0.2966 -0.9399
 6416SOL    HW219248   0.461   3.527   4.549 -0.8481  0.0972  1.2286
 6417SOL     OW19249   5.465   0.764   4.228 -0.4166  0.1499 -0.4523
 6417SOL    HW119250   5.484   0.838   4.170 -0.9487  1.0346  0.4754
 6417SOL    HW219251   5.408   0.707   4.176 -1.5795  1.3442 -0.5366
 6418SOL     OW19252   4.649   3.743   5.726  0.4191 -0.1257  0.6012
 6418SOL    HW119253   4.724   3.725   5.782  0.6908  0.0467  0.2977
 6418SOL    HW219254   4.574   3.707   5.774  0.7910 -1.0256  0.5322
 6419SOL     OW19255   0.759   0.963   5.291 -0.4498  0.2186 -0.1420
 6419SOL    HW119256   0.704   0.904   5.238 -0.5481 -0.6978  0.9482
 6419SOL    HW219257   0.731   0.948   5.381  1.5753 -0.2782  0.4557
 6420SOL     OW19258   5.346   3.455   0.898 -0.0176 -0.4290 -0.5522
 6420SOL    HW119259   5.349   3.500   0.813  0.6729  2.2154  0.7507
 6420SOL    HW219260   5.254   3.458   0.924 -0.1648 -0.8840 -0.9949
 6421SOL     OW19261   3.425   3.011   0.286 -0.0286 -0.1371  0.4952
 6421SOL    HW119262   3.416   3.063   0.366 -0.4227  1.6422 -0.6669
 6421SOL    HW219263   3.512   3.032   0.253  0.4375 -1.4459  0.8082
 6422SOL     OW19264   4.760   1.782   0.717 -0.2794 -0.0190  0.8409
 6422SOL    HW119265   4.768   1.689   0.740  1.3196 -0.0057  0.4633
 6422SOL    HW219266   4.786   1.786   0.625 -0.2468  0.8238  0.8840
 6423SOL     OW19267   1.702   0.229   5.370 -0.2346 -0.0746 -0.4626
 6423SOL    HW119268   1.632   0.164   5.370 -0.2077 -0.1363 -1.9669
 6423SOL    HW219269   1.746   0.216   5.286  0.9973  0.5874  0.0673
 6424SOL     OW19270   0.101   3.282   1.482 -0.2320 -0.5758 -0.0682
 6424SOL    HW119271   0.172   3.280   1.417  0.6403 -0.4761  0.8693
 6424SOL    HW219272   0.101   3.372   1.514 -0.2041 -0.7951  0.5588
 6425SOL     OW19273   4.443   5.413   5.958  0.0143 -0.1777  0.2113
 6425SOL    HW119274   4.426   5.321   5.938 -2.2493  0.0138  0.9518
 6425SOL    HW219275   4.400   5.428   6.042  2.3743  1.0142  1.3078
 6426SOL     OW19276   2.017   3.879   1.633  0.2468 -0.4905 -0.6117
 6426SOL    HW119277   1.949   3.940   1.607  0.9619  0.2794 -0.7043
 6426SOL    HW219278   2.096   3.912   1.591  1.1260 -0.1206  1.2422
 6427SOL     OW19279   5.779   0.188   0.854 -0.1225  0.2842 -0.0392
 6427SOL    HW119280   5.821   0.260   0.901 -1.8740  1.7272 -0.5367
 6427SOL    HW219281   5.801   0.204   0.762  1.1636 -1.0397  0.0059
 6428SOL     OW19282   5.623   2.963   1.733 -0.2182 -0.2801  0.5379
 6428SOL    HW119283   5.705   2.914   1.742 -0.1892 -0.1317  1.0880
 6428SOL    HW219284   5.555   2.901   1.759 -0.0559  0.4743  3.0088
 6429SOL     OW19285   3.093   2.649   0.943 -0.5516  0.7804  0.0552
 6429SOL    HW119286   3.069   2.561   0.970 -2.8525  1.8466  1.8286
 6429SOL    HW219287   3.133   2.638   0.857 -0.7549 -1.9522  0.2257
 6430SOL     OW19288   4.645   4.809   1.280 -0.0594 -0.1470 -0.2749
 6430SOL    HW119289   4.568   4.860   1.304 -1.4734 -1.7752 -1.0650
 6430SOL    HW219290   4.640   4.802   1.185  1.6349  0.5413 -0.4287
 6431SOL     OW19291   3.030   3.798   2.455  0.1047 -0.2452 -0.2068
 6431SOL    HW119292   3.010   3.717   2.502 -0.2324  0.3268  0.6636
 6431SOL    HW219293   3.027   3.773   2.363 -2.5886 -0.6976 -0.0925
 6432SOL     OW19294   0.765   0.484   0.424 -0.3363 -0.2416 -0.7416
 6432SOL    HW119295   0.752   0.571   0.385  2.1865  0.5072 -0.0739
 6432SOL    HW219296   0.770   0.501   0.518  2.6297 -0.6810 -0.7416
 6433SOL     OW19297   5.381   5.546   1.175 -0.3205  0.0405 -0.1989
 6433SOL    HW119298   5.407   5.465   1.132  0.4306 -0.1989  0.6663
 6433SOL    HW219299   5.286   5.549   1.167 -0.3369 -0.8458 -0.3787
 6434SOL     OW19300   5.827   3.580   0.996 -0.2280  0.3060 -1.0863
 6434SOL    HW119301   5.833   3.640   1.069  0.8661  1.7637 -2.3215
 6434SOL    HW219302   5.750   3.526   1.016 -0.1884  0.9117  0.9088
 6435SOL     OW19303   2.360   5.754   2.027 -0.1154 -0.3722  1.1007
 6435SOL    HW119304   2.314   5.719   2.103  2.3426 -2.0932  1.9080
 6435SOL    HW219305   2.451   5.761   2.055  0.5210  0.9924 -1.0447
 6436SOL     OW19306   3.027   2.063   5.744 -0.3100 -0.1646  0.5571
 6436SOL    HW119307   2.951   2.032   5.795  0.0897  1.5466  2.3273
 6436SOL    HW219308   3.025   2.158   5.755  1.2528  0.0357 -0.6429
 6437SOL     OW19309   5.765   3.528   5.461 -0.5468 -0.1720  0.4944
 6437SOL    HW119310   5.763   3.433   5.451  0.3809 -0.1147 -0.4449
 6437SOL    HW219311   5.732   3.561   5.377 -0.8185  0.3350  0.7979
 6438SOL     OW19312   5.554   3.918   1.647  0.4620 -0.3067  0.3720
 6438SOL    HW119313   5.529   3.900   1.556 -0.3182 -0.9512  0.7110
 6438SOL    HW219314   5.493   3.985   1.676  1.3011  0.5904  0.1483
 6439SOL     OW19315   5.488   0.768   0.592 -0.4057 -0.3950 -0.5347
 6439SOL    HW119316   5.417   0.812   0.639  0.9765 -0.1091  1.4023
 6439SOL    HW219317   5.457   0.678   0.580 -1.2320 -0.1867 -0.0624
 6440SOL     OW19318   1.141   2.285   0.291  0.1415  0.4779 -0.1713
 6440SOL    HW119319   1.075   2.271   0.223 -0.0676  0.7071 -0.0181
 6440SOL    HW219320   1.123   2.218   0.357  0.0365  0.5674 -0.1096
 6441SOL     OW19321   3.220   4.107   0.235  0.0477  0.0287  0.0357
 6441SOL    HW119322   3.283   4.091   0.305 -0.6021  3.1108  1.5288
 6441SOL    HW219323   3.259   4.178   0.184 -0.1386 -1.2274 -1.9540
 6442SOL     OW19324   4.232   5.854   0.403 -0.1736 -0.2843  0.4727
 6442SOL    HW119325   4.169   5.798   0.448 -0.9134  0.7098  0.7022
 6442SOL    HW219326   4.283   5.895   0.473  0.1056 -0.3725  0.3225
 6443SOL     OW19327   5.536   0.934   2.506  0.0051  0.6952 -0.0575
 6443SOL    HW119328   5.622   0.948   2.544 -0.2314  0.6041  0.5199
 6443SOL    HW219329   5.550   0.867   2.439  0.1305 -0.4119  1.0414
 6444SOL     OW19330   4.675   2.779   0.373 -0.3460 -0.2513  0.2114
 6444SOL    HW119331   4.745   2.769   0.308 -1.0473  2.2926 -1.0432
 6444SOL    HW219332   4.714   2.831   0.442 -0.7700  0.5866 -0.1667
 6445SOL     OW19333   4.633   0.807   4.595  0.8289 -0.4361 -0.4509
 6445SOL    HW119334   4.626   0.885   4.541 -1.4520 -0.0113  0.3511
 6445SOL    HW219335   4.679   0.836   4.674 -0.7632  0.3787  0.2263
 6446SOL     OW19336   5.602   3.691   5.178 -0.3675  0.3881  0.3388
 6446SOL    HW119337   5.633   3.678   5.088 -2.0847 -1.6951 -0.0329
 6446SOL    HW219338   5.653   3.766   5.210  1.5890  0.0594 -1.7284
 6447SOL     OW19339   1.219   0.931   4.930  0.6596 -0.5018 -0.3986
 6447SOL    HW119340   1.258   0.885   5.005  1.6770  0.0198 -0.5770
 6447SOL    HW219341   1.126   0.936   4.950  0.7938 -1.1077  0.4363
 6448SOL     OW19342   1.661   0.757   1.004 -0.0087  0.4474  0.4091
 6448SOL    HW119343   1.567   0.768   0.992 -0.0847  0.8558  1.3061
 6448SOL    HW219344   1.675   0.662   1.000 -0.0853  0.4859 -2.2153
 6449SOL     OW19345   4.651   0.802   0.766  0.4605  0.1698  0.9705
 6449SOL    HW119346   4.674   0.859   0.692  2.3081  1.2676  2.2949
 6449SOL    HW219347   4.563   0.830   0.792  0.8009  1.5191  0.7434
 6450SOL     OW19348   5.285   1.471   0.779 -0.1825 -0.4962  0.4785
 6450SOL    HW119349   5.229   1.535   0.735  2.1891  1.2498 -0.1927
 6450SOL    HW219350   5.288   1.501   0.870  0.2247 -0.1385  0.3525
 6451SOL     OW19351   3.866   2.389   0.272  0.1216 -0.2625  0.7364
 6451SOL    HW119352   3.774   2.384   0.298 -0.8097 -0.7753 -2.3488
 6451SOL    HW219353   3.867   2.447   0.196  1.9692 -2.0366 -0.7162
 6452SOL     OW19354   0.538   3.828   5.816  0.3984  0.2303 -0.0492
 6452SOL    HW119355   0.591   3.757   5.781  1.4684  1.6863 -1.5696
 6452SOL    HW219356   0.474   3.785   5.873  1.9737 -1.7710  0.3256
 6453SOL     OW19357   4.904   3.606   1.331  0.2189  0.7021 -0.5095
 6453SOL    HW119358   4.997   3.630   1.327  0.4617 -0.1207  0.1283
 6453SOL    HW219359   4.887   3.591   1.424 -0.1324 -0.7939 -0.8006
 6454SOL     OW19360   3.461   5.898   1.291 -0.1887  0.2466 -0.2312
 6454SOL    HW119361   3.540   5.878   1.240  0.0812  0.3168  0.1460
 6454SOL    HW219362   3.468   5.840   1.367  0.7854  1.9741  1.0681
 6455SOL     OW19363   0.045   5.557   0.743  0.1709  0.3871  1.0678
 6455SOL    HW119364   0.125   5.557   0.795  0.9073  0.8321 -0.0247
 6455SOL    HW219365   0.060   5.623   0.675 -1.0714  0.3858  0.7582
 6456SOL     OW19366   4.292   0.968   0.311 -0.0077 -0.2129  0.1545
 6456SOL    HW119367   4.298   1.042   0.252  2.8334  0.2192  0.8219
 6456SOL    HW219368   4.321   1.002   0.396  0.6522 -1.8857  0.6501
 6457SOL     OW19369   2.661   3.650   1.167 -0.3049  0.6440  0.3695
 6457SOL    HW119370   2.577   3.634   1.126 -0.5657  2.2717  0.2017
 6457SOL    HW219371   2.716   3.577   1.139 -1.6488 -0.4570  0.5061
 6458SOL     OW19372   4.553   5.685   5.381  0.2259  0.1340 -0.1063
 6458SOL    HW119373   4.556   5.634   5.300 -0.4781 -0.7812  0.4283
 6458SOL    HW219374   4.541   5.775   5.352 -0.4751 -0.2361 -1.0246
 6459SOL     OW19375   1.133   0.468   5.842 -0.0122  0.6850 -0.1951
 6459SOL    HW119376   1.181   0.506   5.915  0.1596  1.3077 -0.6252
 6459SOL    HW219377   1.159   0.376   5.842  1.7164  1.1362 -0.8273
 6460SOL     OW19378   3.386   3.936   5.959  0.4315  0.1297 -0.1260
 6460SOL    HW119379   3.368   3.965   5.870 -2.1047  0.7120  0.4920
 6460SOL    HW219380   3.464   3.986   5.985  0.5205  0.8191 -1.6057
 6461SOL     OW19381   0.540   5.442   0.192 -0.5557  0.0475 -0.0525
 6461SOL    HW119382   0.627   5.482   0.186  0.5055 -2.1070  0.2169
 6461SOL    HW219383   0.536   5.381   0.118 -2.0575  0.4330 -0.3412
 6462SOL     OW19384   3.616   5.849   2.327 -0.2752  0.0646 -0.2178
 6462SOL    HW119385   3.546   5.839   2.263 -1.2822  0.1430  0.8243
 6462SOL    HW219386   3.618   5.943   2.346 -0.8514 -0.1000  0.7567
 6463SOL     OW19387   4.763   1.684   5.393  0.4529  0.2712 -0.4035
 6463SOL    HW119388   4.772   1.767   5.347 -1.7754 -0.2816 -1.9940
 6463SOL    HW219389   4.748   1.619   5.325  1.7261 -1.4174  0.8291
 6464SOL     OW19390   3.907   4.597   3.085 -0.4724  0.5230  0.6403
 6464SOL    HW119391   3.904   4.502   3.077 -0.2495  0.6099 -0.6430
 6464SOL    HW219392   3.891   4.630   2.996  0.6951  1.6539  0.8082
 6465SOL     OW19393   3.972   1.710   0.163 -0.0920  0.0503  0.1026
 6465SOL    HW119394   4.048   1.756   0.129  0.1132  0.6285  1.2947
 6465SOL    HW219395   3.982   1.714   0.258 -1.3209 -0.3498  0.2666
 6466SOL     OW19396   3.569   5.397   0.608 -0.4430 -0.3799 -0.6935
 6466SOL    HW119397   3.602   5.310   0.631 -2.2329 -0.7423  0.7288
 6466SOL    HW219398   3.473   5.389   0.611 -0.6673  1.7981  0.1717
 6467SOL     OW19399   2.912   0.648   2.138 -0.5844  0.2494  0.1988
 6467SOL    HW119400   2.949   0.702   2.068  2.3377  0.6264  1.8779
 6467SOL    HW219401   2.908   0.560   2.100  0.1671  0.5823 -0.6945
 6468SOL     OW19402   4.901   4.271   3.072 -0.3073  0.4808 -0.3334
 6468SOL    HW119403   4.883   4.365   3.077 -0.5639  0.4043  0.2802
 6468SOL    HW219404   4.954   4.253   3.149 -0.2539  0.1205 -0.4543
 6469SOL     OW19405   4.699   5.232   5.294 -0.6571  0.3490 -0.1265
 6469SOL    HW119406   4.702   5.296   5.223  0.4298 -0.6345 -0.9995
 6469SOL    HW219407   4.636   5.269   5.356  1.3031  3.2360  0.3425
 6470SOL     OW19408   4.543   0.835   2.399  0.1500  0.3383 -0.6096
 6470SOL    HW119409   4.571   0.759   2.450  0.2818 -0.6960 -2.1362
 6470SOL    HW219410   4.597   0.907   2.431  2.6712 -1.0075 -1.5585
 6471SOL     OW19411   5.169   0.276   0.307  0.6287  0.4767 -0.1902
 6471SOL    HW119412   5.197   0.340   0.241  3.3664 -0.3962 -0.0026
 6471SOL    HW219413   5.245   0.219   0.318 -1.5624 -2.6844 -0.1495
 6472SOL     OW19414   5.012   5.874   0.640 -0.2788  0.3014  0.2928
 6472SOL    HW119415   5.046   5.789   0.668 -2.5663 -0.5010  0.8638
 6472SOL    HW219416   5.072   5.902   0.571  0.4457 -1.8702 -0.0328
 6473SOL     OW19417   5.696   1.969   4.229 -0.5927 -0.7399  0.4489
 6473SOL    HW119418   5.776   2.017   4.252 -1.3887  0.0209  1.7463
 6473SOL    HW219419   5.668   2.007   4.146  1.5590 -2.5383 -1.2296
 6474SOL     OW19420   2.243   0.344   3.111 -0.1141 -0.6610  0.0392
 6474SOL    HW119421   2.310   0.378   3.052 -0.8695  2.3827  0.7597
 6474SOL    HW219422   2.283   0.350   3.198 -1.2082  1.0060  0.4530
 6475SOL     OW19423   1.112   1.550   2.829  0.3490 -0.3783 -0.3622
 6475SOL    HW119424   1.081   1.639   2.811 -0.5170 -0.7832 -0.9740
 6475SOL    HW219425   1.207   1.559   2.836  0.2811  0.5836 -0.4796
 6476SOL     OW19426   5.841   1.704   3.014  0.7233  0.6164  0.5285
 6476SOL    HW119427   5.779   1.686   3.085  0.8510  0.3778  0.5815
 6476SOL    HW219428   5.921   1.731   3.058  0.3594  1.9151  0.4384
 6477SOL     OW19429   3.675   5.809   1.133 -0.2073  0.0906 -0.0150
 6477SOL    HW119430   3.739   5.835   1.200  1.3571  0.4170 -1.5701
 6477SOL    HW219431   3.692   5.716   1.118 -0.9654 -0.1328  0.4387
 6478SOL     OW19432   0.546   5.289   0.412 -0.3775 -0.5372 -0.0800
 6478SOL    HW119433   0.546   5.347   0.336 -0.8518  0.7774  0.8872
 6478SOL    HW219434   0.475   5.228   0.396 -1.2718  0.4981 -0.1536
 6479SOL     OW19435   2.621   5.026   2.003  0.2144 -0.3686  0.4085
 6479SOL    HW119436   2.540   5.053   1.959  0.2090  0.8565  1.0973
 6479SOL    HW219437   2.595   4.954   2.060 -0.6411  0.6504  1.3634
 6480SOL     OW19438   5.300   2.649   2.252 -0.0900 -0.0708  0.3212
 6480SOL    HW119439   5.332   2.672   2.164 -1.0976 -0.2578 -0.1143
 6480SOL    HW219440   5.206   2.667   2.248 -0.1091  0.1572  1.4504
 6481SOL     OW19441   3.333   4.300   3.120  0.3012 -0.0718  0.2662
 6481SOL    HW119442   3.379   4.222   3.151  1.3127  0.1440 -0.6541
 6481SOL    HW219443   3.400   4.352   3.076 -0.6834  0.5811 -0.5057
 6482SOL     OW19444   4.559   4.292   0.691  0.1546  0.3089  0.6341
 6482SOL    HW119445   4.469   4.319   0.710  0.6912  2.3663  0.4427
 6482SOL    HW219446   4.607   4.308   0.772  0.8623  1.7824 -0.0371
 6483SOL     OW19447   4.396   1.782   1.389  0.3328  0.6299  0.0467
 6483SOL    HW119448   4.377   1.758   1.298 -0.6505  0.4795  0.2833
 6483SOL    HW219449   4.356   1.869   1.399  1.4611  1.1693  0.0061
 6484SOL     OW19450   3.119   3.774   5.464  0.2519  0.4277 -0.0489
 6484SOL    HW119451   3.089   3.842   5.525 -2.6232  1.1558 -2.0574
 6484SOL    HW219452   3.214   3.776   5.471  0.1446  2.6121  2.1125
 6485SOL     OW19453   5.691   5.822   0.629  0.2932 -0.4015 -0.2059
 6485SOL    HW119454   5.635   5.782   0.695  0.5764 -0.8663 -0.2433
 6485SOL    HW219455   5.753   5.753   0.604  1.1953  0.2389  0.1930
 6486SOL     OW19456   2.440   1.813   3.559  0.6741 -0.2167  0.2790
 6486SOL    HW119457   2.367   1.842   3.612 -1.7487 -0.2545 -2.7414
 6486SOL    HW219458   2.446   1.719   3.576  0.6615 -0.0483  1.2498
 6487SOL     OW19459   2.943   1.903   0.892  0.1717  0.6044 -0.3543
 6487SOL    HW119460   3.018   1.961   0.889  0.1771  0.6238  0.2159
 6487SOL    HW219461   2.966   1.831   0.833  0.4097  0.8772 -0.5955
 6488SOL     OW19462   3.073   5.100   1.978  0.2127 -0.1201 -0.0072
 6488SOL    HW119463   3.139   5.079   1.912  0.5931 -1.0313  0.6595
 6488SOL    HW219464   2.997   5.129   1.926  0.6094 -0.5219 -0.8341
 6489SOL     OW19465   0.512   4.819   5.282 -0.0352  0.1414  0.4767
 6489SOL    HW119466   0.537   4.881   5.350 -0.7473  0.2847  0.6109
 6489SOL    HW219467   0.576   4.748   5.290 -0.1030  0.1613  1.2857
 6490SOL     OW19468   0.270   0.797   0.319 -0.3995 -0.8304 -0.1053
 6490SOL    HW119469   0.221   0.822   0.241  0.3116 -0.0774 -0.3115
 6490SOL    HW219470   0.225   0.842   0.391  0.4230  0.4687 -0.3844
 6491SOL     OW19471   3.477   4.165   0.437 -0.3610 -0.3080 -0.0637
 6491SOL    HW119472   3.463   4.221   0.361 -1.3854  0.4544  0.6518
 6491SOL    HW219473   3.563   4.126   0.424 -0.7202 -0.5849 -1.8507
 6492SOL     OW19474   1.142   3.504   5.779 -0.2884 -1.0223  0.1868
 6492SOL    HW119475   1.068   3.564   5.770  3.0939  3.7416 -0.3249
 6492SOL    HW219476   1.164   3.507   5.872  1.3736  0.8213 -0.1949
 6493SOL     OW19477   3.716   1.166   0.671  0.0454 -0.1785 -0.2159
 6493SOL    HW119478   3.656   1.099   0.706 -0.9818  0.0623 -1.4269
 6493SOL    HW219479   3.681   1.185   0.584  1.9859 -0.1200 -1.0267
 6494SOL     OW19480   2.585   4.052   2.277 -0.0063  0.6971  0.6012
 6494SOL    HW119481   2.582   3.987   2.207 -1.0430  0.8318  0.4989
 6494SOL    HW219482   2.674   4.046   2.312  0.1187 -0.3047  0.1557
 6495SOL     OW19483   5.019   0.068   0.854  0.4456 -0.2803 -0.2817
 6495SOL    HW119484   5.059   0.137   0.801  1.1743  0.5662  1.2798
 6495SOL    HW219485   5.009  -0.006   0.795  2.7971  0.0315 -1.1731
 6496SOL     OW19486   2.136   5.316   1.218  0.0535  0.5317 -0.4597
 6496SOL    HW119487   2.141   5.310   1.123  0.1586  0.0183 -0.4260
 6496SOL    HW219488   2.219   5.281   1.249  0.0156  0.6883 -0.1809
 6497SOL     OW19489   1.004   5.485   5.600 -0.1592 -0.1539 -0.2285
 6497SOL    HW119490   0.935   5.542   5.634 -0.1932 -0.2083 -0.2053
 6497SOL    HW219491   1.084   5.516   5.642 -0.4848 -1.5788  1.6232
 6498SOL     OW19492   1.279   4.943   3.119  0.2733  0.5304 -0.3875
 6498SOL    HW119493   1.282   4.907   3.207 -1.1008  1.2944 -0.0056
 6498SOL    HW219494   1.207   5.005   3.120  1.2347  1.7420 -1.6172
 6499SOL     OW19495   1.372   5.616   1.937  0.6822  0.0305  0.0748
 6499SOL    HW119496   1.301   5.563   1.972 -0.1202 -0.1063 -1.6359
 6499SOL    HW219497   1.412   5.562   1.869  0.2865  1.3288 -1.2392
 6500SOL     OW19498   5.341   3.114   0.261 -0.0961 -0.3027 -0.4828
 6500SOL    HW119499   5.412   3.125   0.323 -0.3317  0.7203 -0.3747
 6500SOL    HW219500   5.370   3.044   0.203  1.1235  0.2695 -0.6023
 6501SOL     OW19501   4.394   5.739   1.284 -0.5805 -0.0740  0.3058
 6501SOL    HW119502   4.443   5.674   1.234  1.8345  0.5376  1.7315
 6501SOL    HW219503   4.433   5.737   1.371 -0.1761  3.4293  0.3679
 6502SOL     OW19504   3.762   4.972   5.357  0.4393  0.2050 -0.2271
 6502SOL    HW119505   3.698   4.912   5.395  1.0514 -0.9457 -0.9438
 6502SOL    HW219506   3.802   5.015   5.432  0.7241 -1.0787  0.3897
 6503SOL     OW19507   0.593   3.016   2.742  0.2543 -0.1704 -0.3826
 6503SOL    HW119508   0.620   3.107   2.757 -0.6570 -0.0246  0.4677
 6503SOL    HW219509   0.656   2.983   2.677  1.6299  0.5497  0.5270
 6504SOL     OW19510   5.305   6.015   3.574  0.1634 -0.1583 -0.5607
 6504SOL    HW119511   5.258   5.990   3.654 -2.5908  1.6905 -1.4692
 6504SOL    HW219512   5.285   5.946   3.512 -2.0906  0.8986 -1.1292
 6505SOL     OW19513   2.761   1.535   5.567  0.4602  0.7533  0.1840
 6505SOL    HW119514   2.703   1.533   5.643  0.6782 -0.0406  0.3378
 6505SOL    HW219515   2.748   1.451   5.525  2.6172 -0.1229  1.0838
 6506SOL     OW19516   2.483   1.800   2.373 -0.1955  0.2597 -0.3023
 6506SOL    HW119517   2.539   1.831   2.444 -2.0306  1.2350  0.7970
 6506SOL    HW219518   2.521   1.715   2.347 -0.1275 -0.7292  2.6653
 6507SOL     OW19519   0.022   0.848   3.273 -0.0182  0.1547 -0.0421
 6507SOL    HW119520   0.067   0.853   3.189 -1.0520  2.1939 -0.5298
 6507SOL    HW219521  -0.071   0.852   3.251 -0.3365 -0.1275  1.1563
 6508SOL     OW19522   3.572   0.619   5.719  0.0455  0.2149 -0.6127
 6508SOL    HW119523   3.585   0.694   5.777 -0.9735 -1.2569  1.6919
 6508SOL    HW219524   3.488   0.636   5.677  1.2332  1.7564 -2.5410
 6509SOL     OW19525   4.849   0.201   4.390  0.4807  0.0863  0.5575
 6509SOL    HW119526   4.789   0.261   4.435  0.6469  2.6999 -2.4145
 6509SOL    HW219527   4.806   0.116   4.396 -1.4047  1.0678  2.1723
 6510SOL     OW19528   4.784   3.087   5.547 -0.3531 -0.8004  0.1309
 6510SOL    HW119529   4.833   3.005   5.538  1.1272  0.1138 -0.5711
 6510SOL    HW219530   4.726   3.088   5.470 -0.1615 -1.0490 -0.0219
 6511SOL     OW19531   2.174   0.273   2.304  0.9206 -0.1732 -0.4352
 6511SOL    HW119532   2.197   0.239   2.218  0.1835 -1.1087 -0.2757
 6511SOL    HW219533   2.204   0.206   2.365 -2.4627 -1.7046 -0.2221
 6512SOL     OW19534   3.846   3.029   2.274 -0.3359 -0.0415 -0.1352
 6512SOL    HW119535   3.899   3.108   2.264  0.1131 -0.3506 -0.2587
 6512SOL    HW219536   3.909   2.962   2.302 -0.7355 -0.3208  0.0977
 6513SOL     OW19537   4.670   5.512   1.724  0.2033  0.6139 -0.6869
 6513SOL    HW119538   4.682   5.423   1.691 -0.5655  0.3538 -0.2799
 6513SOL    HW219539   4.650   5.564   1.646  0.3988  0.3897 -0.8878
 6514SOL     OW19540   4.463   5.616   3.989 -0.0526  0.5196 -0.3640
 6514SOL    HW119541   4.453   5.538   4.044  0.8757 -1.2355 -2.5325
 6514SOL    HW219542   4.557   5.626   3.978 -0.1836  1.5436 -0.7048
 6515SOL     OW19543   3.366   5.877   3.959 -0.0911 -0.2731  0.2004
 6515SOL    HW119544   3.275   5.873   3.987 -0.2546 -1.5528 -0.4412
 6515SOL    HW219545   3.370   5.952   3.900 -0.5184  0.3284  0.9147
 6516SOL     OW19546   3.690   0.919   1.251 -0.2556  0.0578 -0.4755
 6516SOL    HW119547   3.746   0.993   1.275 -0.0757  0.1097 -1.0499
 6516SOL    HW219548   3.714   0.850   1.313 -0.9594  0.7155  0.5529
 6517SOL     OW19549   4.883   4.076   3.420  0.2666 -0.1862 -0.1605
 6517SOL    HW119550   4.960   4.040   3.464 -0.0597 -1.5840 -0.7109
 6517SOL    HW219551   4.831   4.115   3.491  0.0904 -1.7791  0.6288
 6518SOL     OW19552   2.380   2.224   1.639 -0.2554  0.0453  0.5414
 6518SOL    HW119553   2.457   2.230   1.583 -1.5441  0.5029 -1.2787
 6518SOL    HW219554   2.392   2.294   1.704  0.8604  0.0866  0.3037
 6519SOL     OW19555   1.715   2.389   4.336  0.0010 -0.1877  0.2729
 6519SOL    HW119556   1.660   2.324   4.379 -0.2955  0.4063  0.8124
 6519SOL    HW219557   1.655   2.462   4.317  0.6469  0.5876  1.1204
 6520SOL     OW19558   4.403   0.440   3.670 -0.2930 -0.2050 -0.0383
 6520SOL    HW119559   4.442   0.371   3.617  1.0550  0.3360  0.2141
 6520SOL    HW219560   4.397   0.515   3.612  1.8286  0.6020  0.6835
 6521SOL     OW19561   5.811   0.164   3.096  0.3294 -0.3339 -0.0754
 6521SOL    HW119562   5.790   0.248   3.054 -0.6872 -0.2214  0.6332
 6521SOL    HW219563   5.726   0.120   3.106  0.5433 -0.4180  1.7243
 6522SOL     OW19564   2.535   3.594   2.561 -0.6056 -0.4493  0.3394
 6522SOL    HW119565   2.582   3.614   2.480  0.8302  0.9739  1.4476
 6522SOL    HW219566   2.561   3.505   2.582  0.0577 -0.3711 -0.1045
 6523SOL     OW19567   4.370   4.322   0.366  0.2405  0.1201  0.3500
 6523SOL    HW119568   4.348   4.250   0.425 -2.5467  0.2685 -0.3909
 6523SOL    HW219569   4.455   4.353   0.397  1.6072 -3.4688  0.6604
 6524SOL     OW19570   1.975   2.898   2.519  0.4515  0.1144  0.3518
 6524SOL    HW119571   1.959   2.861   2.432 -1.8063  1.3508  0.1608
 6524SOL    HW219572   1.937   2.834   2.579 -1.3043  0.9273  0.1626
 6525SOL     OW19573   2.733   0.626   2.576 -0.1184 -0.1598  0.3680
 6525SOL    HW119574   2.705   0.710   2.540  2.8001  0.6762 -0.2506
 6525SOL    HW219575   2.727   0.565   2.502  1.8929  0.6039 -0.5221
 6526SOL     OW19576   5.306   0.887   2.967  0.5868 -0.0941 -0.4239
 6526SOL    HW119577   5.332   0.856   2.881  0.5616  1.0466 -0.8563
 6526SOL    HW219578   5.221   0.928   2.953  1.3048  1.5334 -0.1815
 6527SOL     OW19579   5.191   1.611   0.262 -0.3669  0.1148  0.0576
 6527SOL    HW119580   5.173   1.520   0.240  0.3668 -0.2552  0.9239
 6527SOL    HW219581   5.185   1.657   0.178  0.0839 -0.8627 -0.5358
 6528SOL     OW19582   0.310   0.822   4.026  0.4013  0.0996 -0.2408
 6528SOL    HW119583   0.370   0.821   3.952  0.9414  0.4938  0.1836
 6528SOL    HW219584   0.224   0.835   3.987  0.8432  1.8888 -0.7185
 6529SOL     OW19585   0.934   0.992   5.734 -0.5117  0.2602  0.2637
 6529SOL    HW119586   0.990   0.924   5.773  0.8999 -0.0352 -2.0930
 6529SOL    HW219587   0.941   1.066   5.795  0.3370 -0.6760  1.3569
 6530SOL     OW19588   3.976   5.803   3.837 -0.1998 -0.1476  0.0023
 6530SOL    HW119589   4.036   5.758   3.897 -1.6093 -0.6538  1.0935
 6530SOL    HW219590   3.940   5.875   3.888  0.3432  0.8896 -1.0280
 6531SOL     OW19591   4.059   1.211   4.306  0.1637 -0.4449  0.5270
 6531SOL    HW119592   4.030   1.216   4.215  0.2824  1.0076  0.5434
 6531SOL    HW219593   4.120   1.138   4.308  0.6119 -0.1276 -0.7019
 6532SOL     OW19594   3.938   4.329   3.105 -0.0905  0.1825 -0.2956
 6532SOL    HW119595   3.846   4.304   3.110 -0.6872  2.3420  1.3307
 6532SOL    HW219596   3.973   4.309   3.191  0.9353 -0.4511 -0.8434
 6533SOL     OW19597   4.141   0.481   1.036 -0.1902 -0.2352 -0.3003
 6533SOL    HW119598   4.201   0.408   1.048  0.5452  0.1383 -1.5480
 6533SOL    HW219599   4.163   0.517   0.950 -1.4437  0.6167 -0.2997
 6534SOL     OW19600   4.714   4.751   2.455  0.2276 -0.3248 -0.1297
 6534SOL    HW119601   4.749   4.839   2.442  2.4170 -1.1743 -0.5930
 6534SOL    HW219602   4.786   4.703   2.497 -0.5817 -2.1185 -0.6784
 6535SOL     OW19603   0.113   0.327   4.413  0.1534  0.4908  0.5432
 6535SOL    HW119604   0.073   0.314   4.500 -2.0169  0.4811 -0.3819
 6535SOL    HW219605   0.060   0.272   4.355  1.7382  0.2907 -0.7619
 6536SOL     OW19606   3.155   4.783   4.427  0.0384 -0.4063  0.2052
 6536SOL    HW119607   3.093   4.740   4.486  0.9727 -0.7343  0.9745
 6536SOL    HW219608   3.128   4.756   4.340 -0.3885 -1.2273  0.5853
 6537SOL     OW19609   4.566   5.645   2.136  0.5270 -0.1067 -1.2953
 6537SOL    HW119610   4.499   5.592   2.180 -0.1963  1.2273 -0.7170
 6537SOL    HW219611   4.520   5.726   2.112  2.5244  2.1085  1.6642
 6538SOL     OW19612   1.961   3.267   2.307  0.6179  0.3085 -0.4071
 6538SOL    HW119613   1.935   3.343   2.256 -0.2715  0.3269  0.0543
 6538SOL    HW219614   2.047   3.242   2.272  1.4359  2.1612  0.1406
 6539SOL     OW19615   1.140   1.006   1.240 -0.2154  0.3453  0.4469
 6539SOL    HW119616   1.153   1.098   1.218  0.3817  0.4013  1.0004
 6539SOL    HW219617   1.080   1.006   1.314  0.4073  0.3358  0.9569
 6540SOL     OW19618   1.618   5.258   3.498  0.0838  0.2719  0.4357
 6540SOL    HW119619   1.541   5.312   3.480 -1.6615 -1.7346  1.4103
 6540SOL    HW219620   1.661   5.303   3.571  1.0747  2.5103 -1.3909
 6541SOL     OW19621   3.423   1.587   2.549  0.2405  0.7087 -0.0708
 6541SOL    HW119622   3.437   1.670   2.594  1.7292  1.3603 -1.6340
 6541SOL    HW219623   3.503   1.573   2.499  1.1935 -2.9768  2.0896
 6542SOL     OW19624   3.519   5.918   5.236  0.6153 -0.2996 -0.0024
 6542SOL    HW119625   3.494   5.920   5.328 -0.1886 -3.2206 -0.0627
 6542SOL    HW219626   3.569   5.999   5.223  1.1575 -0.0180  3.0842
 6543SOL     OW19627   3.211   0.252   3.711  0.1141  0.0619 -0.1672
 6543SOL    HW119628   3.176   0.165   3.690 -0.3959 -0.3893  2.2099
 6543SOL    HW219629   3.163   0.312   3.654 -2.8981 -0.7914  1.2769
 6544SOL     OW19630   3.774   2.140   1.277  0.3920  0.0508  0.2599
 6544SOL    HW119631   3.700   2.199   1.290  1.0715  1.0980 -0.5294
 6544SOL    HW219632   3.816   2.134   1.363  0.4965  0.9670  0.2767
 6545SOL     OW19633   5.843   4.502   4.037  0.2652 -0.3524 -0.0036
 6545SOL    HW119634   5.880   4.536   3.956 -0.4438  0.7766  0.1330
 6545SOL    HW219635   5.815   4.579   4.086 -1.1773 -1.1107  0.4234
 6546SOL     OW19636   4.844   3.854   1.501 -0.2404  0.3706 -0.4534
 6546SOL    HW119637   4.823   3.808   1.420 -0.6036  0.5684 -0.4718
 6546SOL    HW219638   4.917   3.911   1.477  0.7253 -0.7476 -0.2439
 6547SOL     OW19639   3.803   5.748   4.895 -0.2094 -0.1130 -0.2687
 6547SOL    HW119640   3.841   5.836   4.894 -0.4293  0.0078 -1.9028
 6547SOL    HW219641   3.713   5.761   4.863 -0.1421 -0.9650 -0.8380
 6548SOL     OW19642   0.193   1.370   3.669 -0.1007  0.0156  0.6480
 6548SOL    HW119643   0.163   1.327   3.749 -0.1068  0.1237  0.7032
 6548SOL    HW219644   0.280   1.334   3.654  0.4374  0.9704  1.4189
 6549SOL     OW19645   0.055   1.987   5.037 -0.0079  0.0008  0.3313
 6549SOL    HW119646   0.148   1.964   5.031 -0.0933 -0.0980 -0.7295
 6549SOL    HW219647   0.051   2.077   5.005 -0.1539  0.3531  1.3008
 6550SOL     OW19648   4.579   4.586   4.755  0.1311 -0.0816  0.1831
 6550SOL    HW119649   4.541   4.608   4.670 -1.1357 -0.0245  0.7436
 6550SOL    HW219650   4.603   4.670   4.794 -1.4167  0.0929  0.8267
 6551SOL     OW19651   3.499   4.383   2.251 -0.0161 -0.0676  0.3490
 6551SOL    HW119652   3.464   4.303   2.291  0.4804 -0.1548  0.6210
 6551SOL    HW219653   3.566   4.413   2.313  0.4577  0.0398 -0.2048
 6552SOL     OW19654   2.824   5.068   1.845 -0.7191 -0.5847 -0.2225
 6552SOL    HW119655   2.789   5.137   1.790 -0.2989  1.6230  2.1139
 6552SOL    HW219656   2.755   5.051   1.910  1.0850  1.6651  2.5521
 6553SOL     OW19657   3.623   5.601   3.612 -0.2453  0.2495  0.2589
 6553SOL    HW119658   3.611   5.522   3.559 -0.9453 -0.4164  1.3542
 6553SOL    HW219659   3.665   5.663   3.553  1.1236 -1.2130 -0.4055
 6554SOL     OW19660   4.693   4.986   1.541  0.4546  0.2099  0.6573
 6554SOL    HW119661   4.644   4.984   1.459  1.2201 -2.3892  0.1679
 6554SOL    HW219662   4.632   4.952   1.607  0.2935  0.9296  0.8823
 6555SOL     OW19663   0.223   0.101   1.062 -0.3540 -0.0417 -0.1149
 6555SOL    HW119664   0.185   0.179   1.103  1.0599 -0.4140  2.0775
 6555SOL    HW219665   0.160   0.032   1.081  0.0662 -0.1148  1.0893
 6556SOL     OW19666   1.900   2.076   4.497 -0.1493 -0.4179  0.3767
 6556SOL    HW119667   1.948   2.043   4.421  0.8575 -2.3538  1.7438
 6556SOL    HW219668   1.810   2.044   4.485 -0.1518 -0.1645 -0.2900
 6557SOL     OW19669   5.795   4.787   3.375  0.5300  0.2250  0.2005
 6557SOL    HW119670   5.701   4.797   3.361  0.8879  1.2690 -1.9041
 6557SOL    HW219671   5.823   4.871   3.412  0.6463 -0.1220  0.9270
 6558SOL     OW19672   3.141   4.834   4.060  0.1291 -0.1494  0.3721
 6558SOL    HW119673   3.157   4.814   3.968  2.6474  2.4903  0.0970
 6558SOL    HW219674   3.085   4.911   4.059 -1.5264 -1.2773  1.1684
 6559SOL     OW19675   3.860   2.548   0.704  0.3085  0.3026  0.3447
 6559SOL    HW119676   3.857   2.452   0.699  0.7392  0.1718  2.0143
 6559SOL    HW219677   3.952   2.568   0.718  0.0397  0.8658  1.3706
 6560SOL     OW19678   4.224   1.550   5.008 -0.2942  0.0097 -0.1078
 6560SOL    HW119679   4.204   1.550   4.914 -0.1643  2.0846 -0.1805
 6560SOL    HW219680   4.318   1.569   5.012 -0.6173  1.6071  0.4516
 6561SOL     OW19681   3.449   4.978   0.084 -0.0876 -0.4731 -0.2579
 6561SOL    HW119682   3.377   5.012   0.031 -0.8406  0.0111  1.0281
 6561SOL    HW219683   3.522   4.971   0.023 -1.2429 -1.0977 -1.6357
 6562SOL     OW19684   3.629   0.880   4.500  0.2564 -0.4302 -0.2792
 6562SOL    HW119685   3.623   0.902   4.593  1.0378  1.0651 -0.5560
 6562SOL    HW219686   3.616   0.785   4.497  2.1382 -0.8225  1.5646
 6563SOL     OW19687   2.915   5.356   5.617  0.7136 -0.2989 -0.3890
 6563SOL    HW119688   2.867   5.335   5.537 -0.2511  0.4820 -0.0389
 6563SOL    HW219689   2.915   5.452   5.621 -0.0729 -0.3218  0.9908
 6564SOL     OW19690   5.034   5.552   3.883 -0.4671 -0.2686 -0.4035
 6564SOL    HW119691   4.961   5.535   3.825 -0.9528 -0.0228  0.1179
 6564SOL    HW219692   5.086   5.472   3.881 -0.7044 -0.4158 -0.8439
 6565SOL     OW19693   5.932   3.843   4.622  0.0370 -0.5127 -0.0347
 6565SOL    HW119694   5.878   3.788   4.565 -0.1213  1.2624 -1.7097
 6565SOL    HW219695   6.020   3.836   4.585  0.0996 -0.0114  0.0150
 6566SOL     OW19696   3.340   1.018   2.933  0.5488 -0.0401 -0.0067
 6566SOL    HW119697   3.377   1.106   2.940  1.3539 -0.3128 -0.7740
 6566SOL    HW219698   3.331   0.989   3.024 -1.0747  1.3694  0.3376
 6567SOL     OW19699   0.986   1.917   0.033 -0.4833 -0.4362 -0.1022
 6567SOL    HW119700   1.051   1.940  -0.033 -0.9370 -0.0565 -0.4224
 6567SOL    HW219701   1.034   1.865   0.097  0.9490  2.6210  1.4725
 6568SOL     OW19702   4.716   0.062   5.011  0.2840 -0.3425 -0.4679
 6568SOL    HW119703   4.789   0.111   5.049  0.4740 -0.8593 -0.1573
 6568SOL    HW219704   4.641   0.122   5.017  0.2619 -0.4801  0.9136
 6569SOL     OW19705   5.544   4.915   1.445 -0.2152 -0.3292 -0.2432
 6569SOL    HW119706   5.523   4.979   1.513 -1.3300 -1.2901  0.3644
 6569SOL    HW219707   5.610   4.858   1.485 -0.1997 -0.3468 -0.2935
 6570SOL     OW19708   4.841   0.329   0.149 -0.1618  0.3507  0.2627
 6570SOL    HW119709   4.767   0.270   0.162  1.5250 -1.8749  0.3645
 6570SOL    HW219710   4.833   0.359   0.059  0.8054 -2.9686 -1.0790
 6571SOL     OW19711   5.278   4.410   4.506  0.4433 -0.2337  0.2072
 6571SOL    HW119712   5.228   4.402   4.425  0.1212  1.7809  0.1398
 6571SOL    HW219713   5.366   4.437   4.477  1.1644 -2.2044  0.4159
 6572SOL     OW19714   3.406   1.007   2.608  0.0698 -0.0468  0.4590
 6572SOL    HW119715   3.348   1.018   2.683 -0.2357 -0.1627  0.2411
 6572SOL    HW219716   3.408   1.092   2.566 -5.2707 -1.3111 -3.4181
 6573SOL     OW19717   4.237   5.239   4.233 -0.2764  0.5378  0.4476
 6573SOL    HW119718   4.199   5.314   4.279 -1.8801  0.2517 -0.3390
 6573SOL    HW219719   4.192   5.163   4.269 -0.8707  0.2281 -0.8661
 6574SOL     OW19720   2.061   5.835   4.615  0.0263  0.2270  0.2778
 6574SOL    HW119721   2.045   5.785   4.696 -0.0486 -0.3493 -0.0870
 6574SOL    HW219722   2.089   5.769   4.551 -0.6893  0.5556 -0.3890
 6575SOL     OW19723   4.621   0.517   5.155 -0.1506 -0.1543  0.3084
 6575SOL    HW119724   4.698   0.570   5.135 -0.4140 -0.4801 -1.7892
 6575SOL    HW219725   4.648   0.464   5.230  1.3661  0.3354  0.1551
 6576SOL     OW19726   5.194   3.003   0.625 -0.3009 -0.2325  0.2535
 6576SOL    HW119727   5.114   2.966   0.587 -0.3511 -1.1442  1.2060
 6576SOL    HW219728   5.238   2.928   0.665  0.3204  0.5074  0.9764
 6577SOL     OW19729   4.649   0.687   3.303  0.2079 -0.3841  0.3412
 6577SOL    HW119730   4.644   0.621   3.371 -1.7098  1.5846  2.2861
 6577SOL    HW219731   4.739   0.719   3.307 -0.5503  2.0101  4.5510
 6578SOL     OW19732   5.405   3.705   5.365 -0.0723  0.1827  0.1888
 6578SOL    HW119733   5.386   3.798   5.352  0.3663 -0.0848 -3.0894
 6578SOL    HW219734   5.465   3.682   5.294 -0.0350 -2.5777  0.9948
 6579SOL     OW19735   3.341   5.685   5.440  0.6686  0.2285  1.0459
 6579SOL    HW119736   3.275   5.619   5.418 -2.1278  2.9779  0.3732
 6579SOL    HW219737   3.387   5.702   5.358  0.3054  0.2163  0.8379
 6580SOL     OW19738   0.229   0.032   0.196 -0.1656 -0.0569  0.2178
 6580SOL    HW119739   0.265  -0.051   0.229 -0.0261  0.5216  1.5847
 6580SOL    HW219740   0.306   0.087   0.180 -0.2610 -0.1530 -0.6500
 6581SOL     OW19741   3.331   4.981   4.397 -0.1729  0.1151 -0.1841
 6581SOL    HW119742   3.361   4.987   4.307 -0.6177  2.5242 -0.2357
 6581SOL    HW219743   3.266   4.910   4.397 -1.8940  1.5712 -2.3068
 6582SOL     OW19744   2.230   1.817   0.693 -0.0077 -0.0221 -0.6112
 6582SOL    HW119745   2.164   1.887   0.700 -0.6872 -0.7205  0.2065
 6582SOL    HW219746   2.183   1.744   0.652 -1.3447 -2.2810  4.1814
 6583SOL     OW19747   2.203   1.081   3.514  0.2918 -0.3104  0.3136
 6583SOL    HW119748   2.231   0.998   3.476 -0.6997 -0.9576  0.9481
 6583SOL    HW219749   2.283   1.132   3.522  0.8882 -1.1401 -0.2429
 6584SOL     OW19750   5.583   5.307   1.928  0.0987 -0.5177  0.6758
 6584SOL    HW119751   5.630   5.248   1.869  0.9645  0.0638  0.7721
 6584SOL    HW219752   5.520   5.250   1.973 -1.1807 -0.8512 -1.3607
 6585SOL     OW19753   1.530   5.017   3.402 -0.3593  0.1928 -0.5973
 6585SOL    HW119754   1.525   5.048   3.312  0.7139  0.5305 -0.5537
 6585SOL    HW219755   1.578   5.085   3.449  0.3297 -0.6144 -0.0857
 6586SOL     OW19756   4.300   2.835   4.712  0.4023  0.3637 -0.1726
 6586SOL    HW119757   4.240   2.886   4.657 -1.6171 -1.2753  0.3641
 6586SOL    HW219758   4.339   2.771   4.653  0.9493  0.8452 -0.3437
 6587SOL     OW19759   3.595   2.951   4.483 -0.5832 -0.3235 -0.0168
 6587SOL    HW119760   3.502   2.953   4.462 -0.7053 -0.7645  0.4456
 6587SOL    HW219761   3.630   3.033   4.448 -1.8164  1.5774  2.8671
 6588SOL     OW19762   0.272   5.273   5.961 -0.2770  0.0134  0.6755
 6588SOL    HW119763   0.210   5.345   5.957  0.3065  0.4875 -3.0165
 6588SOL    HW219764   0.219   5.194   5.952 -0.5793  0.2078  0.7491
 6589SOL     OW19765   4.614   2.844   3.802  0.3442 -0.4538  0.4389
 6589SOL    HW119766   4.585   2.754   3.820  0.6679 -0.1339  2.9678
 6589SOL    HW219767   4.541   2.884   3.756 -0.3927 -1.6122  0.5570
 6590SOL     OW19768   3.760   1.899   3.402  0.0235 -0.2137  0.3946
 6590SOL    HW119769   3.827   1.864   3.461 -1.4399 -1.7125  1.2347
 6590SOL    HW219770   3.693   1.935   3.460 -1.1844 -1.2024 -0.3554
 6591SOL     OW19771   0.043   5.273   4.369  0.0246 -0.3939  0.3014
 6591SOL    HW119772   0.046   5.209   4.441 -0.7288  1.1665  1.8110
 6591SOL    HW219773   0.118   5.330   4.385  0.8568 -1.0362 -1.1986
 6592SOL     OW19774   0.319   5.663   3.828 -0.7032 -0.5347  0.0827
 6592SOL    HW119775   0.354   5.588   3.781 -0.8875 -1.0802  0.8111
 6592SOL    HW219776   0.235   5.633   3.863 -2.5404  1.0414 -2.5250
 6593SOL     OW19777   2.384   2.313   0.207  0.2408  0.0140 -0.8528
 6593SOL    HW119778   2.321   2.384   0.217 -0.9962 -1.0975 -0.4269
 6593SOL    HW219779   2.466   2.347   0.243 -1.0674  0.2417  2.2252
 6594SOL     OW19780   1.337   0.826   0.468  0.1786  0.1138  0.5353
 6594SOL    HW119781   1.338   0.919   0.448 -1.9914  0.3760  1.3787
 6594SOL    HW219782   1.254   0.794   0.433  0.3840 -1.2563  1.2139
 6595SOL     OW19783   2.259   2.353   3.194 -0.1787 -0.5748  0.0764
 6595SOL    HW119784   2.228   2.295   3.124  0.2744 -0.7439  0.0094
 6595SOL    HW219785   2.342   2.387   3.162 -0.1178 -0.4103  0.4022
 6596SOL     OW19786   4.209   5.907   2.641 -0.1126  0.3351 -0.5051
 6596SOL    HW119787   4.299   5.892   2.615  0.2410  3.5648 -1.6528
 6596SOL    HW219788   4.157   5.853   2.581  1.0163  0.3442 -1.5293
 6597SOL     OW19789   3.963   0.005   5.008 -0.1258  0.0246  0.0735
 6597SOL    HW119790   3.997   0.091   5.032  3.1309 -1.1222  0.0960
 6597SOL    HW219791   3.914  -0.024   5.086  1.6538  0.5095  1.4508
 6598SOL     OW19792   3.060   0.463   3.017  0.4441  0.4711 -0.5464
 6598SOL    HW119793   3.026   0.374   3.029 -2.2131  1.3705 -0.7541
 6598SOL    HW219794   3.117   0.456   2.941  1.2272 -1.2747  0.1453
 6599SOL     OW19795   0.118   1.347   4.309 -0.0331 -0.0609  0.0243
 6599SOL    HW119796   0.153   1.425   4.352 -2.1514  0.8159  0.3312
 6599SOL    HW219797   0.194   1.295   4.286  1.3508  1.1300  1.6687
 6600SOL     OW19798   0.355   5.608   2.134 -0.3719  0.3295 -0.2961
 6600SOL    HW119799   0.285   5.667   2.109 -1.3504  0.1200  1.7076
 6600SOL    HW219800   0.313   5.522   2.139  0.0654  0.1604  0.6980
 6601SOL     OW19801   4.008   4.615   4.675 -0.2212  0.2988  0.5618
 6601SOL    HW119802   4.056   4.573   4.747  0.2583 -1.7568 -0.8839
 6601SOL    HW219803   3.916   4.605   4.698 -0.0699 -0.0614  1.0236
 6602SOL     OW19804   0.495   0.391   5.267 -0.1832  0.1072 -0.7086
 6602SOL    HW119805   0.415   0.441   5.284  1.3325  2.6678 -0.6741
 6602SOL    HW219806   0.464   0.314   5.219 -2.5815  1.4584 -1.5429
 6603SOL     OW19807   1.793   5.883   0.942  0.5820  0.3941 -0.3245
 6603SOL    HW119808   1.809   5.852   1.031 -0.0380  0.5193 -0.1718
 6603SOL    HW219809   1.702   5.862   0.925  0.0102  2.4995 -0.0640
 6604SOL     OW19810   5.496   1.836   3.615 -0.2069 -0.5771  0.3114
 6604SOL    HW119811   5.502   1.804   3.525 -0.6881 -2.1273  0.7971
 6604SOL    HW219812   5.525   1.927   3.610 -0.9241 -0.4003 -1.5377
 6605SOL     OW19813   5.607   1.294   3.045 -0.2947  0.3778 -1.2230
 6605SOL    HW119814   5.650   1.246   3.115 -0.1004 -0.4812 -1.9166
 6605SOL    HW219815   5.661   1.279   2.968  0.3056  2.5025 -1.2820
 6606SOL     OW19816   5.380   4.716   3.151 -0.1356 -0.3988 -0.1215
 6606SOL    HW119817   5.375   4.632   3.197 -2.3636 -0.9596 -1.2392
 6606SOL    HW219818   5.364   4.694   3.059 -1.6323  1.3226 -0.3286
 6607SOL     OW19819   4.991   5.419   4.483 -0.3858 -0.3198  0.7605
 6607SOL    HW119820   4.933   5.359   4.435  0.7292 -0.8641  0.0541
 6607SOL    HW219821   4.998   5.381   4.570 -1.2999 -0.0986  0.9378
 6608SOL     OW19822   2.228   1.441   2.661 -0.3368  1.0142 -0.1203
 6608SOL    HW119823   2.239   1.353   2.695  1.4861  0.9815 -0.6853
 6608SOL    HW219824   2.137   1.444   2.631 -0.2431 -0.9033 -0.7314
 6609SOL     OW19825   2.151   4.657   3.943  0.3732  0.1311 -0.6142
 6609SOL    HW119826   2.225   4.714   3.921 -0.9460  1.8107 -0.9461
 6609SOL    HW219827   2.100   4.708   4.007  0.0621 -1.4490  0.4575
 6610SOL     OW19828   5.625   2.196   5.779  0.4050  0.0426 -0.0059
 6610SOL    HW119829   5.709   2.177   5.821  0.6550 -2.1881 -1.3296
 6610SOL    HW219830   5.649   2.241   5.698  0.1527  1.2800  0.5896
 6611SOL     OW19831   2.427   0.690   5.068  0.4901 -0.0202  0.2145
 6611SOL    HW119832   2.392   0.725   4.986 -0.3490 -0.6108  0.3124
 6611SOL    HW219833   2.519   0.670   5.047  0.4386  0.3401 -0.4134
 6612SOL     OW19834   1.769   0.509   1.093 -0.0163  0.6314  0.0747
 6612SOL    HW119835   1.852   0.481   1.131  0.1581  0.5734 -0.3458
 6612SOL    HW219836   1.711   0.522   1.169  0.7568  1.9593  0.4716
 6613SOL     OW19837   5.952   0.545   5.401 -0.2919  0.2303 -0.2180
 6613SOL    HW119838   5.990   0.626   5.367 -0.2561  0.2513 -0.1273
 6613SOL    HW219839   6.009   0.476   5.367 -0.3855  0.2344 -0.3862
 6614SOL     OW19840   1.170   0.016   1.013  0.6727  0.7426 -0.0718
 6614SOL    HW119841   1.211   0.024   1.100  1.5220  1.3107 -0.5099
 6614SOL    HW219842   1.133   0.102   0.996 -2.3188 -0.2017  1.0457
 6615SOL     OW19843   0.477   1.457   2.549  0.0431  0.3808 -0.2951
 6615SOL    HW119844   0.431   1.374   2.536  0.9876 -0.4405  1.2287
 6615SOL    HW219845   0.569   1.432   2.554  0.6276  1.8673 -2.3042
 6616SOL     OW19846   5.848   0.498   1.749  0.0848 -0.1435 -0.4164
 6616SOL    HW119847   5.776   0.442   1.777 -0.0656  0.8574  1.3786
 6616SOL    HW219848   5.825   0.524   1.660 -1.5253 -0.2567 -0.0585
 6617SOL     OW19849   1.903   2.189   1.360 -0.0933 -0.4833  0.2922
 6617SOL    HW119850   1.973   2.197   1.425 -0.0211 -0.3103  0.1925
 6617SOL    HW219851   1.924   2.254   1.293  0.5156 -1.5157 -0.5521
 6618SOL     OW19852   5.928   4.124   5.649 -0.0214 -0.1874  0.1510
 6618SOL    HW119853   5.889   4.194   5.596 -3.5177 -0.9300  1.4548
 6618SOL    HW219854   5.943   4.164   5.734  1.3625 -0.1419 -0.1019
 6619SOL     OW19855   3.492   2.517   4.886 -0.1167 -0.4060 -0.0689
 6619SOL    HW119856   3.508   2.535   4.978 -0.4774  0.7876 -0.2204
 6619SOL    HW219857   3.449   2.432   4.885  1.0691 -1.0475  0.7471
 6620SOL     OW19858   0.873   4.624   1.681  0.0631 -0.0245 -0.8452
 6620SOL    HW119859   0.917   4.639   1.598 -0.2920  2.8654 -0.6247
 6620SOL    HW219860   0.901   4.697   1.737 -0.9701 -0.9768  1.0307
 6621SOL     OW19861   1.817   4.179   1.856  0.1263  0.1694  0.6560
 6621SOL    HW119862   1.769   4.103   1.824 -2.6624  1.7079  0.8724
 6621SOL    HW219863   1.861   4.214   1.779  1.6387 -1.7085  0.5963
 6622SOL     OW19864   4.468   0.611   0.638 -0.0702 -0.3630 -0.1956
 6622SOL    HW119865   4.457   0.524   0.600  0.6591 -0.1717 -0.8781
 6622SOL    HW219866   4.563   0.622   0.644 -0.1092  0.8489 -1.2652
 6623SOL     OW19867   0.627   0.870   0.985 -0.3348 -0.7051 -0.3204
 6623SOL    HW119868   0.701   0.809   0.980  1.3853  1.2701 -0.6414
 6623SOL    HW219869   0.668   0.955   1.000 -2.4704  0.6865 -1.8174
 6624SOL     OW19870   3.638   0.631   2.187  0.4828 -0.2519  0.0174
 6624SOL    HW119871   3.552   0.598   2.160  1.2385 -2.7137  0.3674
 6624SOL    HW219872   3.643   0.719   2.150 -2.1026 -0.1178 -0.1611
 6625SOL     OW19873   1.384   2.594   1.174 -0.2473  0.1649  0.7018
 6625SOL    HW119874   1.309   2.649   1.149 -2.3234 -1.6685  2.3837
 6625SOL    HW219875   1.426   2.642   1.245 -0.7370  0.5691  0.7267
 6626SOL     OW19876   5.907   3.749   0.535  0.6608  0.0411 -0.2265
 6626SOL    HW119877   5.962   3.810   0.584  2.4247 -1.2444 -0.5206
 6626SOL    HW219878   5.850   3.710   0.601  1.5430 -0.1046  0.4695
 6627SOL     OW19879   5.229   1.703   2.893  0.7041  0.1434  0.4511
 6627SOL    HW119880   5.268   1.742   2.815  0.7453 -1.5891 -0.4128
 6627SOL    HW219881   5.137   1.730   2.890 -0.0801 -2.4092 -1.9218
 6628SOL     OW19882   0.815   5.803   0.698 -0.1161 -0.9468 -0.7079
 6628SOL    HW119883   0.795   5.896   0.709  0.9994 -0.6323 -1.2086
 6628SOL    HW219884   0.842   5.774   0.786  0.1048 -0.6463 -0.6746
 6629SOL     OW19885   5.990   4.225   5.886 -0.3955  0.3622 -0.4353
 6629SOL    HW119886   6.036   4.299   5.846  1.9123  0.1458  1.5915
 6629SOL    HW219887   5.936   4.265   5.955  1.3794  0.1921  1.1225
 6630SOL     OW19888   4.549   5.311   5.496  0.6071  0.0633 -0.2916
 6630SOL    HW119889   4.458   5.337   5.484  0.9303  0.0430 -4.2726
 6630SOL    HW219890   4.594   5.390   5.524 -0.6849 -0.1815  2.7986
 6631SOL     OW19891   0.690   5.244   1.149 -0.2104  0.0765  0.5863
 6631SOL    HW119892   0.752   5.267   1.218  0.0656  0.9253  0.0726
 6631SOL    HW219893   0.733   5.271   1.068 -0.1300 -1.7495 -0.0171
 6632SOL     OW19894   5.295   3.442   0.406  0.2109 -0.2800  0.0919
 6632SOL    HW119895   5.296   3.484   0.320 -1.5934  1.2440  0.7487
 6632SOL    HW219896   5.276   3.350   0.387  0.0307 -0.0040 -1.1569
 6633SOL     OW19897   5.472   2.243   1.574 -0.1871  0.0604 -0.2403
 6633SOL    HW119898   5.402   2.178   1.585  0.5733 -1.3227 -2.7304
 6633SOL    HW219899   5.551   2.197   1.603 -0.1961  1.5766  2.4540
 6634SOL     OW19900   2.863   0.805   0.721 -0.3086 -0.8584  0.0215
 6634SOL    HW119901   2.925   0.732   0.726  0.4870 -0.2071 -0.0284
 6634SOL    HW219902   2.809   0.795   0.800 -0.9549 -2.1293 -0.5534
 6635SOL     OW19903   4.979   1.833   1.794 -0.5228 -0.2609  0.1038
 6635SOL    HW119904   4.966   1.796   1.881  2.9892 -0.3837  0.7197
 6635SOL    HW219905   4.932   1.917   1.797 -0.7724 -0.4212  2.0130
 6636SOL     OW19906   4.640   5.872   1.244 -0.2165  0.6566 -0.0443
 6636SOL    HW119907   4.705   5.895   1.178 -0.4596  2.2354  0.2301
 6636SOL    HW219908   4.636   5.777   1.241  0.2383  0.6489 -1.8607
 6637SOL     OW19909   0.585   5.769   5.289 -0.2072 -0.3065 -0.7671
 6637SOL    HW119910   0.629   5.783   5.205  0.6614 -1.9835 -0.6376
 6637SOL    HW219911   0.654   5.781   5.354 -0.0255 -2.3267 -0.5198
 6638SOL     OW19912   5.477   4.329   0.264 -0.6886  0.1169  0.4898
 6638SOL    HW119913   5.404   4.375   0.306 -0.0097 -0.3442  2.2891
 6638SOL    HW219914   5.453   4.237   0.269  0.4500 -0.1487  2.1660
 6639SOL     OW19915   5.750   1.478   0.262  0.7559  0.3923 -0.0266
 6639SOL    HW119916   5.755   1.390   0.299  0.2776  0.0661 -0.7206
 6639SOL    HW219917   5.832   1.488   0.214  1.8600  1.2082  1.9053
 6640SOL     OW19918   5.610   1.052   0.659 -0.4734  0.3122 -0.0741
 6640SOL    HW119919   5.538   1.113   0.646 -0.7503 -0.2422 -1.3852
 6640SOL    HW219920   5.572   0.966   0.639  0.3738 -0.0653 -0.1040
 6641SOL     OW19921   2.026   0.799   2.408  0.0845  0.4295  0.1208
 6641SOL    HW119922   2.089   0.804   2.336 -0.1928  0.6866 -0.1103
 6641SOL    HW219923   2.077   0.774   2.484  0.4787  0.7024 -0.0525
 6642SOL     OW19924   3.430   1.449   0.348  0.1138 -1.1297  0.4288
 6642SOL    HW119925   3.425   1.405   0.263 -0.3248 -1.2525  0.5143
 6642SOL    HW219926   3.404   1.382   0.411 -1.9158 -0.4064  0.4431
 6643SOL     OW19927   0.825   3.477   0.321  0.2288  0.5300 -0.6441
 6643SOL    HW119928   0.782   3.562   0.317  0.6676  0.8188  0.4699
 6643SOL    HW219929   0.911   3.491   0.281  0.8359  0.9734  0.7649
 6644SOL     OW19930   5.215   5.518   2.076  0.2064 -0.0910 -0.4978
 6644SOL    HW119931   5.154   5.452   2.044 -0.8211  0.5152  0.1705
 6644SOL    HW219932   5.186   5.538   2.165  2.0607 -0.6032  0.2885
 6645SOL     OW19933   1.659   3.331   5.542 -0.0565 -0.6529  0.3740
 6645SOL    HW119934   1.644   3.286   5.459 -1.3386  0.3135  0.0610
 6645SOL    HW219935   1.622   3.418   5.530  1.6514  0.2526  1.2544
 6646SOL     OW19936   5.350   4.766   1.333  0.0930 -0.2380 -0.4314
 6646SOL    HW119937   5.426   4.819   1.357 -0.2874  0.3903 -0.5659
 6646SOL    HW219938   5.364   4.682   1.376  1.2424 -0.3982 -1.1114
 6647SOL     OW19939   1.386   1.154   2.141  0.3112 -0.4409  0.1433
 6647SOL    HW119940   1.451   1.087   2.164 -0.1028 -1.1637 -0.7056
 6647SOL    HW219941   1.400   1.170   2.047  0.4184  0.6961  0.3435
 6648SOL     OW19942   0.757   5.312   1.777 -0.1928 -0.2776 -0.2690
 6648SOL    HW119943   0.797   5.389   1.737  1.0716  0.5773  2.4056
 6648SOL    HW219944   0.683   5.347   1.828  0.2277 -0.8447  0.7556
 6649SOL     OW19945   3.916   2.187   3.041  0.0871 -0.1907  0.3831
 6649SOL    HW119946   3.936   2.259   3.101 -0.2516  0.3326 -0.1243
 6649SOL    HW219947   3.899   2.112   3.099  0.1822  0.1983  0.9269
 6650SOL     OW19948   1.345   5.779   0.265 -0.2252 -0.1723  0.2308
 6650SOL    HW119949   1.385   5.857   0.227  1.5598 -1.7553 -1.3770
 6650SOL    HW219950   1.259   5.773   0.222 -0.2219  0.6663  0.0778
 6651SOL     OW19951   0.580   3.177   3.164  0.1546  0.4478  0.0766
 6651SOL    HW119952   0.502   3.214   3.204 -1.4718  0.3849 -2.7874
 6651SOL    HW219953   0.609   3.243   3.101  2.2639  0.3364  0.8545
 6652SOL     OW19954   4.117   0.323   3.364 -0.1652 -0.0231  0.1812
 6652SOL    HW119955   4.200   0.359   3.332 -1.0093  1.1079 -0.8251
 6652SOL    HW219956   4.112   0.355   3.454  0.8406 -0.7566  0.5199
 6653SOL     OW19957   2.404   1.572   5.201  0.3302 -0.2466 -0.0771
 6653SOL    HW119958   2.436   1.483   5.189 -1.0810 -0.8918  0.6716
 6653SOL    HW219959   2.461   1.610   5.268 -2.7326 -2.7712  4.4299
 6654SOL     OW19960   5.474   5.662   3.534 -0.8030  0.0417  0.1396
 6654SOL    HW119961   5.497   5.640   3.624 -2.7429  2.3507  1.3287
 6654SOL    HW219962   5.541   5.724   3.507  0.1318 -1.1248 -0.2566
 6655SOL     OW19963   4.804   2.642   1.791  0.0128  0.4530 -0.1293
 6655SOL    HW119964   4.867   2.624   1.861 -0.3659  0.4061  0.1972
 6655SOL    HW219965   4.842   2.717   1.744  0.0150  0.8047  0.4297
 6656SOL     OW19966   4.969   3.449   2.377  0.6881  0.1956  0.0621
 6656SOL    HW119967   4.995   3.432   2.287 -0.9098  1.4751 -0.6854
 6656SOL    HW219968   5.020   3.526   2.403  1.5283 -0.4767  0.4561
 6657SOL     OW19969   1.083   1.888   5.650 -0.5180  0.0732 -0.0984
 6657SOL    HW119970   1.038   1.972   5.659 -0.0518  0.2570  0.4899
 6657SOL    HW219971   1.154   1.906   5.588 -0.7194 -0.0155 -0.3612
 6658SOL     OW19972   0.582   2.224   4.473  0.9569 -0.3788 -0.1577
 6658SOL    HW119973   0.632   2.238   4.393  0.4460 -0.6162 -0.5244
 6658SOL    HW219974   0.500   2.272   4.459  2.2958  2.7568  1.7201
 6659SOL     OW19975   2.836   0.755   3.757  0.2263 -0.2008  0.2461
 6659SOL    HW119976   2.873   0.688   3.815  2.4767  0.1556 -0.6535
 6659SOL    HW219977   2.894   0.830   3.767 -1.0448  0.8992 -0.3254
 6660SOL     OW19978   5.782   5.560   4.329 -0.2827  0.1975  0.1007
 6660SOL    HW119979   5.806   5.519   4.245  0.1201 -0.6926  0.6405
 6660SOL    HW219980   5.719   5.500   4.368  1.0234 -0.4298  1.3315
 6661SOL     OW19981   2.851   5.304   0.194  0.1048 -0.0362  0.1954
 6661SOL    HW119982   2.862   5.290   0.100 -0.9818 -1.6583  0.2728
 6661SOL    HW219983   2.831   5.218   0.229 -1.0747  0.7990  1.6859
 6662SOL     OW19984   5.425   5.085   3.483  0.4040 -1.0040 -0.1721
 6662SOL    HW119985   5.473   5.019   3.433  1.0316 -1.1142  0.5409
 6662SOL    HW219986   5.333   5.070   3.463  0.6383 -1.1285 -1.1706
 6663SOL     OW19987   2.209   5.995   3.454  0.1144  0.1054 -0.3165
 6663SOL    HW119988   2.205   5.970   3.362 -1.3959  0.5245 -0.3832
 6663SOL    HW219989   2.232   5.914   3.500  3.5199  0.4128 -1.2339
 6664SOL     OW19990   5.351   4.596   2.580 -0.3247 -0.4265  0.2237
 6664SOL    HW119991   5.310   4.643   2.507 -2.3711 -0.2575  1.3987
 6664SOL    HW219992   5.420   4.655   2.611 -0.4631  0.1772 -0.5856
 6665SOL     OW19993   5.115   3.799   2.111 -0.0176 -0.2997 -0.6988
 6665SOL    HW119994   5.131   3.887   2.144  0.8971 -1.1750  1.3036
 6665SOL    HW219995   5.149   3.800   2.021 -2.2199  2.0272 -1.6492
 6666SOL     OW19996   5.905   3.686   3.991 -0.1609  0.3841  0.1819
 6666SOL    HW119997   5.927   3.630   3.917 -1.4016 -0.7622  0.6421
 6666SOL    HW219998   5.965   3.659   4.060 -0.2408  0.1518  0.1626
 6667SOL     OW19999   1.577   4.605   0.333 -0.0320  0.1709 -1.0200
 6667SOL    HW120000   1.532   4.582   0.252  3.0734 -1.8404 -2.3386
 6667SOL    HW220001   1.668   4.617   0.308  1.0892 -0.6123  2.1845
 6668SOL     OW20002   1.821   5.510   1.061  0.1431  0.6380  0.5526
 6668SOL    HW120003   1.885   5.492   1.130 -0.1568  1.1800  0.9836
 6668SOL    HW220004   1.866   5.573   1.004  0.5920 -0.2181 -0.0576
 6669SOL     OW20005   0.126   0.896   0.526 -0.3312  0.0551  0.0307
 6669SOL    HW120006   0.033   0.874   0.515 -0.2922 -0.3753  0.5304
 6669SOL    HW220007   0.125   0.987   0.555 -0.6280 -0.1415  0.6479
 6670SOL     OW20008   5.742   5.892   3.822 -0.2829 -0.0448  0.5447
 6670SOL    HW120009   5.652   5.896   3.853 -0.0822 -1.1849  1.3582
 6670SOL    HW220010   5.739   5.928   3.734 -1.3519  0.8436  0.9285
 6671SOL     OW20011   5.587   1.759   4.333  0.6182  0.0200  0.7915
 6671SOL    HW120012   5.607   1.850   4.311  0.5524 -0.4583 -1.4027
 6671SOL    HW220013   5.532   1.728   4.261  2.1903 -2.3192  0.4802
 6672SOL     OW20014   2.330   4.072   4.205 -0.3642  0.6343 -0.4084
 6672SOL    HW120015   2.357   4.008   4.139 -0.3915  0.2964 -0.0929
 6672SOL    HW220016   2.290   4.143   4.154 -0.0336  0.5530 -0.7818
 6673SOL     OW20017   4.926   0.473   2.669  0.4209  0.1414  0.4710
 6673SOL    HW120018   4.883   0.558   2.661  2.1600  1.0200 -0.0908
 6673SOL    HW220019   4.871   0.413   2.619 -0.4727  1.0817  0.3030
 6674SOL     OW20020   0.405   5.531   1.310  0.3478 -0.0670  0.0790
 6674SOL    HW120021   0.393   5.484   1.393 -0.3582  0.0849  0.0672
 6674SOL    HW220022   0.407   5.463   1.244 -2.2274 -0.0400 -0.1122
 6675SOL     OW20023   5.928   0.001   4.363 -0.0567  0.4128  0.1861
 6675SOL    HW120024   5.989   0.045   4.304 -1.4927  1.7489 -0.3703
 6675SOL    HW220025   5.853  -0.021   4.308 -0.3416 -0.6500  0.9716
 6676SOL     OW20026   5.147   1.781   3.983 -0.2247 -0.3966 -0.3837
 6676SOL    HW120027   5.193   1.739   4.056  0.7709 -0.6532 -1.1289
 6676SOL    HW220028   5.093   1.712   3.945  0.5076 -0.7024 -0.8840
 6677SOL     OW20029   5.319   1.265   3.625 -0.1272 -0.1820  0.2003
 6677SOL    HW120030   5.224   1.250   3.630 -0.7480  2.4868 -1.7420
 6677SOL    HW220031   5.334   1.299   3.537  2.0344  2.8630  1.5528
 6678SOL     OW20032   3.598   4.009   2.476 -0.3292 -0.3625 -0.2851
 6678SOL    HW120033   3.680   4.056   2.462 -0.3729 -0.2449 -0.1505
 6678SOL    HW220034   3.535   4.053   2.420 -0.9368  1.2584  1.5393
 6679SOL     OW20035   2.070   0.072   4.322  0.6407 -0.4364 -0.8285
 6679SOL    HW120036   2.115   0.043   4.242 -1.4269 -0.0613 -2.1917
 6679SOL    HW220037   2.074   0.168   4.318  0.4421 -0.4142 -0.5253
 6680SOL     OW20038   5.207   1.647   4.233  0.6595  0.2106 -0.3284
 6680SOL    HW120039   5.298   1.664   4.206  1.9891 -3.8511  0.8806
 6680SOL    HW220040   5.196   1.701   4.312  0.7023  3.2946 -2.2342
 6681SOL     OW20041   0.841   2.879   4.518 -0.1680 -0.1120 -0.6638
 6681SOL    HW120042   0.786   2.807   4.548  1.1049 -0.3629  1.2391
 6681SOL    HW220043   0.914   2.881   4.580 -0.3588  3.0663 -0.3803
 6682SOL     OW20044   3.861   1.557   5.367  0.2045 -0.4453  0.2756
 6682SOL    HW120045   3.886   1.650   5.362  0.8761 -0.6438 -0.3846
 6682SOL    HW220046   3.911   1.516   5.296 -0.5097 -1.2202  0.2076
 6683SOL     OW20047   0.315   1.943   1.995  0.3649  0.0502  0.0843
 6683SOL    HW120048   0.288   1.852   1.990  0.1899  0.1623 -1.3515
 6683SOL    HW220049   0.272   1.977   2.074 -1.1984 -0.5726 -0.4728
 6684SOL     OW20050   1.155   5.352   4.440 -0.6701  0.2234  0.2531
 6684SOL    HW120051   1.063   5.374   4.431 -0.4235  2.6173  2.5673
 6684SOL    HW220052   1.186   5.404   4.514  2.2372 -1.5118  0.4336
 6685SOL     OW20053   0.658   5.906   4.192 -0.3075  0.0496 -0.5713
 6685SOL    HW120054   0.571   5.866   4.193 -0.1340 -0.3305 -0.0958
 6685SOL    HW220055   0.661   5.958   4.273 -0.3325  0.5968 -0.9152
 6686SOL     OW20056   2.886   1.033   2.163 -0.3670  0.0147  0.3028
 6686SOL    HW120057   2.820   1.097   2.190  0.7772  1.2244  0.3223
 6686SOL    HW220058   2.866   0.954   2.215 -1.1269  0.7178  1.1122
 6687SOL     OW20059   5.694   4.424   2.656 -0.4000  0.5044  0.1827
 6687SOL    HW120060   5.732   4.411   2.743  0.8174 -0.4172 -0.4547
 6687SOL    HW220061   5.604   4.452   2.673 -0.2095  0.2666  1.7335
 6688SOL     OW20062   4.644   1.009   4.885 -0.4298 -0.6659 -0.0779
 6688SOL    HW120063   4.640   1.087   4.941 -2.5924 -0.8305  0.0822
 6688SOL    HW220064   4.647   1.045   4.796  2.0459 -0.4173  0.0446
 6689SOL     OW20065   0.720   1.863   5.848  0.1579 -0.1728 -0.8078
 6689SOL    HW120066   0.767   1.803   5.906 -1.4600  0.9981  1.8475
 6689SOL    HW220067   0.780   1.874   5.773  2.2884 -1.8587  0.5100
 6690SOL     OW20068   5.472   1.332   1.213  0.3302 -0.0559 -0.0699
 6690SOL    HW120069   5.408   1.394   1.177  0.1838 -0.6329 -0.8296
 6690SOL    HW220070   5.515   1.295   1.136  0.6001 -0.7036  0.3873
 6691SOL     OW20071   5.632   4.146   1.256 -0.5897  0.1990 -0.0858
 6691SOL    HW120072   5.668   4.057   1.251 -0.2666  0.3279 -0.0571
 6691SOL    HW220073   5.707   4.201   1.280 -0.7579  0.4982 -0.2444
 6692SOL     OW20074   0.249   5.859   5.065 -0.8327 -0.0639  0.4609
 6692SOL    HW120075   0.258   5.771   5.029  2.8993  0.6432 -0.6948
 6692SOL    HW220076   0.177   5.898   5.014  0.2123 -1.1267 -1.9928
 6693SOL     OW20077   1.288   1.261   4.045 -0.0709  0.6539  0.4708
 6693SOL    HW120078   1.201   1.299   4.035 -0.5553 -0.6158 -0.3013
 6693SOL    HW220079   1.276   1.189   4.106  0.4324  0.4549  0.3401
 6694SOL     OW20080   0.134   0.124   3.720 -0.2444 -0.0098 -0.6201
 6694SOL    HW120081   0.221   0.130   3.759 -0.5600 -0.7212  0.2408
 6694SOL    HW220082   0.139   0.050   3.660 -0.9695 -1.9391  1.5319
 6695SOL     OW20083   3.599   2.270   2.826 -0.2900  0.0242 -0.3731
 6695SOL    HW120084   3.510   2.301   2.810 -0.2548 -0.4018 -1.5061
 6695SOL    HW220085   3.592   2.174   2.821 -0.1242 -0.1295  1.5633
 6696SOL     OW20086   0.308   1.404   1.624  0.5452  0.4494 -0.1475
 6696SOL    HW120087   0.245   1.334   1.606 -0.1568  1.1803 -0.6132
 6696SOL    HW220088   0.373   1.364   1.681 -0.0044 -0.5000 -0.1672
 6697SOL     OW20089   0.570   3.058   3.941  0.1013 -0.0616  0.4923
 6697SOL    HW120090   0.477   3.068   3.925 -0.0262 -0.3864  0.9893
 6697SOL    HW220091   0.609   3.141   3.914 -0.3529  0.1341  0.4403
 6698SOL     OW20092   1.818   0.423   3.855 -0.2165  0.6810  0.4323
 6698SOL    HW120093   1.879   0.350   3.863  2.1878  2.2208 -2.1525
 6698SOL    HW220094   1.864   0.497   3.893 -2.3308  1.1086  2.3655
 6699SOL     OW20095   0.209   0.226   4.863 -0.5260 -0.0758 -0.1871
 6699SOL    HW120096   0.204   0.230   4.958  1.7660  1.7531 -0.0462
 6699SOL    HW220097   0.211   0.318   4.835  2.6852 -0.4615 -1.6467
 6700SOL     OW20098   5.713   1.133   3.243  0.4096  0.3631 -0.3825
 6700SOL    HW120099   5.794   1.141   3.294 -0.1542 -0.7381  0.7504
 6700SOL    HW220100   5.727   1.055   3.189 -0.3413 -0.5986  0.7534
 6701SOL     OW20101   4.910   5.729   4.322  0.0749  0.2945 -0.6840
 6701SOL    HW120102   4.843   5.787   4.358 -0.5436 -0.3483 -0.7823
 6701SOL    HW220103   4.913   5.749   4.229 -0.2950  0.0291 -0.7576
 6702SOL     OW20104   1.265   1.189   3.209 -0.4199 -0.3273  0.2466
 6702SOL    HW120105   1.250   1.095   3.220  0.1648 -0.1633  3.5372
 6702SOL    HW220106   1.240   1.207   3.118  1.5068 -4.0188 -1.2322
 6703SOL     OW20107   5.770   5.472   1.379 -0.2752  0.1626  0.3304
 6703SOL    HW120108   5.759   5.394   1.326  1.5101 -0.3807  0.6989
 6703SOL    HW220109   5.788   5.542   1.317  0.4531 -0.1958  0.1356
 6704SOL     OW20110   1.084   2.707   3.786  0.2605 -0.2212  0.0135
 6704SOL    HW120111   1.042   2.728   3.869 -0.0789 -0.6845 -0.0394
 6704SOL    HW220112   1.173   2.742   3.796 -0.0593  0.5638  0.2054
 6705SOL     OW20113   5.456   1.034   3.716 -0.5389 -0.2676 -0.1313
 6705SOL    HW120114   5.538   1.071   3.685 -0.1157 -0.7670  0.3665
 6705SOL    HW220115   5.395   1.107   3.716  0.3677  0.5310  1.1524
 6706SOL     OW20116   4.207   5.102   2.493 -0.0442  0.0491  0.2339
 6706SOL    HW120117   4.247   5.029   2.540 -0.5300  0.2854  1.0385
 6706SOL    HW220118   4.131   5.064   2.449 -0.3158  0.0690  0.6799
 6707SOL     OW20119   0.623   5.819   2.330  0.4682 -0.0932 -0.5228
 6707SOL    HW120120   0.668   5.742   2.296 -1.3094 -0.6677 -1.7576
 6707SOL    HW220121   0.568   5.849   2.257 -0.0759  1.3795  0.4441
 6708SOL     OW20122   0.906   2.573   4.178 -0.2736  0.2838 -0.0804
 6708SOL    HW120123   0.834   2.539   4.231 -0.3656 -0.6260 -0.7622
 6708SOL    HW220124   0.893   2.668   4.179 -1.9661  0.1020 -0.8312
 6709SOL     OW20125   2.017   1.315   3.211 -0.0855  0.7147 -0.2814
 6709SOL    HW120126   1.932   1.339   3.173  0.3545  1.5276 -0.7924
 6709SOL    HW220127   2.073   1.391   3.194  0.3828  0.7471  1.2353
 6710SOL     OW20128   2.809   2.135   4.660  0.1736 -0.6270  0.5349
 6710SOL    HW120129   2.791   2.136   4.754  1.3945  0.5605  0.7841
 6710SOL    HW220130   2.739   2.189   4.622  1.3661  1.4863  1.1586
 6711SOL     OW20131   5.398   2.285   1.901  0.2106 -0.3083 -0.8001
 6711SOL    HW120132   5.306   2.270   1.879 -0.4859  1.5466  0.6529
 6711SOL    HW220133   5.435   2.327   1.823 -1.1533  2.3117 -0.1503
 6712SOL     OW20134   1.321   0.254   3.383  0.4088 -0.1102 -0.2867
 6712SOL    HW120135   1.373   0.294   3.314 -0.5451 -0.0947 -1.0328
 6712SOL    HW220136   1.321   0.161   3.362 -0.1649 -0.0652 -0.5244
 6713SOL     OW20137   4.592   0.500   5.657  0.7431 -0.5587 -0.2744
 6713SOL    HW120138   4.520   0.481   5.597  0.7157  0.0110 -0.4278
 6713SOL    HW220139   4.562   0.577   5.706  0.2746 -1.6691  1.2820
 6714SOL     OW20140   0.231   2.200   2.152 -1.0877 -0.1319  0.1990
 6714SOL    HW120141   0.306   2.236   2.198 -0.1930  0.5976 -1.6983
 6714SOL    HW220142   0.154   2.237   2.195 -0.2445  2.3547 -0.3039
 6715SOL     OW20143   1.088   3.631   4.591 -0.0073 -0.3314 -0.1625
 6715SOL    HW120144   1.108   3.717   4.553 -0.5783  0.0452  0.3707
 6715SOL    HW220145   1.092   3.571   4.516 -1.4068  0.4493 -0.9128
 6716SOL     OW20146   1.822   2.221   5.892  0.5363 -0.1608  0.3302
 6716SOL    HW120147   1.841   2.284   5.823  0.9509  0.3221  0.8744
 6716SOL    HW220148   1.905   2.175   5.905  0.1499 -1.0629 -0.2979
 6717SOL     OW20149   2.622   1.743   0.467 -0.3404 -0.3025 -0.0320
 6717SOL    HW120150   2.619   1.796   0.388  0.5582 -0.4047 -0.1350
 6717SOL    HW220151   2.542   1.768   0.515 -0.1800  0.7784 -0.3000
 6718SOL     OW20152   5.512   0.192   4.679  0.3544  0.8295  0.0885
 6718SOL    HW120153   5.508   0.242   4.760 -0.0096  1.0849 -0.0820
 6718SOL    HW220154   5.475   0.251   4.613  2.5021  1.4399 -0.6680
 6719SOL     OW20155   3.862   2.112   0.505 -0.2433 -0.1128  0.4495
 6719SOL    HW120156   3.832   2.048   0.442 -0.8680  0.1826  0.4444
 6719SOL    HW220157   3.920   2.063   0.564  0.9528 -0.2346 -0.7752
 6720SOL     OW20158   3.693   0.905   3.900 -0.7737 -0.3601  0.4645
 6720SOL    HW120159   3.675   0.849   3.824 -0.7453 -0.3660  0.4621
 6720SOL    HW220160   3.785   0.929   3.890 -0.3897 -1.4632  1.2188
 6721SOL     OW20161   1.179   5.320   4.909  0.5541 -0.6859 -0.8837
 6721SOL    HW120162   1.122   5.276   4.972  0.1320  0.4615 -0.4193
 6721SOL    HW220163   1.149   5.289   4.824  0.2691 -1.2842 -0.5678
 6722SOL     OW20164   1.870   5.865   4.262 -0.3333 -0.2786 -0.1668
 6722SOL    HW120165   1.883   5.772   4.284 -0.6213 -0.1267  0.7049
 6722SOL    HW220166   1.934   5.911   4.317  1.2135 -0.0605 -2.0490
 6723SOL     OW20167   1.103   3.126   4.060  0.0949  0.1515  0.0874
 6723SOL    HW120168   1.109   3.035   4.088  2.1028  0.4784  0.8480
 6723SOL    HW220169   1.063   3.172   4.134  0.8821  0.1958  0.4945
 6724SOL     OW20170   3.241   5.194   0.605 -0.2065 -0.7035 -0.1201
 6724SOL    HW120171   3.241   5.288   0.587  1.5428 -0.7994 -0.8288
 6724SOL    HW220172   3.207   5.155   0.525  0.4676 -0.7368 -0.3968
 6725SOL     OW20173   4.949   4.909   5.430 -0.2601  0.2780 -0.2664
 6725SOL    HW120174   4.982   4.853   5.500  0.6683  0.9806 -0.1205
 6725SOL    HW220175   4.910   4.984   5.476 -1.3122 -0.1337 -0.4622
 6726SOL     OW20176   5.995   5.734   4.349  0.9194  0.1640 -0.8747
 6726SOL    HW120177   5.961   5.820   4.372  0.6586 -0.3539  0.7965
 6726SOL    HW220178   5.918   5.679   4.336  1.0610  0.3063 -2.6556
 6727SOL     OW20179   2.292   0.545   4.747  0.4732 -0.1973 -0.1786
 6727SOL    HW120180   2.287   0.641   4.751  0.3559 -0.2095 -0.0421
 6727SOL    HW220181   2.206   0.518   4.714  0.5918 -0.2422 -0.4586
 6728SOL     OW20182   2.259   2.704   0.524  0.4933  0.2271 -0.3125
 6728SOL    HW120183   2.169   2.683   0.498  0.3382 -0.6989  0.9047
 6728SOL    HW220184   2.262   2.685   0.618  1.9050  0.4754 -0.2905
 6729SOL     OW20185   3.212   0.047   5.622 -0.7507  0.0890  0.4396
 6729SOL    HW120186   3.132   0.071   5.575 -0.2040 -1.5322 -1.4840
 6729SOL    HW220187   3.259   0.130   5.634 -1.5670  0.7481 -0.6799
 6730SOL     OW20188   1.272   0.542   5.013  0.2908  0.2409 -0.6283
 6730SOL    HW120189   1.187   0.528   4.971  0.0417 -1.0721  0.2251
 6730SOL    HW220190   1.258   0.616   5.072 -0.9964 -1.3521  1.2224
 6731SOL     OW20191   0.098   2.339   4.637 -0.1604  0.2484  0.3907
 6731SOL    HW120192   0.094   2.291   4.554 -2.2904 -0.4874  0.8667
 6731SOL    HW220193   0.192   2.343   4.658  0.2766 -1.2433 -1.0674
 6732SOL     OW20194   5.354   4.015   5.282  0.0041 -0.3197 -0.1001
 6732SOL    HW120195   5.445   4.044   5.283  0.3033 -1.1791 -0.8712
 6732SOL    HW220196   5.319   4.048   5.199 -0.6483  0.7105  0.5536
 6733SOL     OW20197   1.978   2.789   5.431 -0.1177  0.0888 -0.4769
 6733SOL    HW120198   1.923   2.800   5.354 -0.2552  0.6513 -0.3059
 6733SOL    HW220199   2.039   2.719   5.408 -0.4582 -0.0633 -0.9226
 6734SOL     OW20200   1.211   3.357   0.860  0.2996  0.5885  0.2902
 6734SOL    HW120201   1.121   3.326   0.853  0.8699 -1.0926  0.0933
 6734SOL    HW220202   1.228   3.358   0.955 -0.3487  2.2982  0.4318
 6735SOL     OW20203   0.653   1.862   0.711  0.0641 -0.2924  0.0685
 6735SOL    HW120204   0.698   1.938   0.746  0.3030  0.0240 -0.8819
 6735SOL    HW220205   0.609   1.894   0.632  1.5659 -1.4696 -1.3377
 6736SOL     OW20206   5.364   5.955   4.962  0.6625  0.1340  0.2727
 6736SOL    HW120207   5.418   5.908   5.026 -0.1532 -0.1149  0.7911
 6736SOL    HW220208   5.296   5.997   5.014 -1.3388 -1.8663 -0.5642
 6737SOL     OW20209   5.562   1.767   3.343  0.3286  0.2962 -0.0097
 6737SOL    HW120210   5.546   1.706   3.271  2.1436  0.7372 -0.8301
 6737SOL    HW220211   5.583   1.850   3.300 -0.6037  1.1227  1.0770
 6738SOL     OW20212   5.455   0.986   0.102  0.5343  0.3287 -0.7477
 6738SOL    HW120213   5.395   0.994   0.028  0.2718 -1.4278 -0.7752
 6738SOL    HW220214   5.537   1.024   0.070 -0.0927  1.2713 -1.2818
 6739SOL     OW20215   5.757   5.282   5.053  0.6777  0.3019  0.1042
 6739SOL    HW120216   5.852   5.286   5.050  0.6639  2.0219  1.0517
 6739SOL    HW220217   5.728   5.344   4.986  0.2693  1.6888  1.5074
 6740SOL     OW20218   1.857   5.239   4.996  0.6200  0.2807 -0.5296
 6740SOL    HW120219   1.936   5.262   4.948  0.9043  1.0920  0.3125
 6740SOL    HW220220   1.840   5.313   5.054 -0.0248 -0.4330  0.2373
 6741SOL     OW20221   5.384   3.178   0.538  0.1496  0.1019  0.2294
 6741SOL    HW120222   5.318   3.121   0.580  0.0330  0.6134  0.7558
 6741SOL    HW220223   5.354   3.267   0.557  0.6175  0.3381 -0.1343
 6742SOL     OW20224   2.611   4.783   4.838  0.1490  0.7834 -0.2869
 6742SOL    HW120225   2.657   4.780   4.754  0.3302  1.5326 -0.2195
 6742SOL    HW220226   2.523   4.751   4.818  0.6723 -0.6687 -0.4176
 6743SOL     OW20227   1.399   5.590   5.950  0.2769  0.0521 -0.5641
 6743SOL    HW120228   1.461   5.632   5.890 -0.0979 -0.2056 -1.1406
 6743SOL    HW220229   1.453   5.530   6.002  0.2908 -1.4495 -2.2257
 6744SOL     OW20230   5.886   1.303   0.696  0.3238  0.1526 -0.2851
 6744SOL    HW120231   5.845   1.259   0.770 -0.6630  2.8907  0.9371
 6744SOL    HW220232   5.812   1.334   0.643  1.0004 -0.6303 -1.7579
 6745SOL     OW20233   0.497   2.258   0.968 -0.7145  0.6039 -0.6444
 6745SOL    HW120234   0.563   2.328   0.974  1.6396 -1.6033  2.2407
 6745SOL    HW220235   0.436   2.278   1.038 -1.6383  1.1825 -1.5897
 6746SOL     OW20236   4.181   0.455   3.017  0.4537 -0.4765  0.2484
 6746SOL    HW120237   4.186   0.453   2.921  0.3032 -0.7143  0.2459
 6746SOL    HW220238   4.242   0.387   3.045  0.0801 -0.7841  0.3092
 6747SOL     OW20239   0.928   2.162   1.126  0.0888  0.0094 -0.1535
 6747SOL    HW120240   0.992   2.136   1.060  0.3234  2.2300 -0.8800
 6747SOL    HW220241   0.869   2.087   1.134 -1.2493  0.3589 -4.4471
 6748SOL     OW20242   4.565   4.082   2.704 -0.1629 -0.2550  0.6450
 6748SOL    HW120243   4.588   4.174   2.713 -2.1254  0.2963  0.5679
 6748SOL    HW220244   4.619   4.037   2.769  1.5171  0.7880  0.0267
 6749SOL     OW20245   4.359   1.126   4.061 -0.0349  0.4203 -0.2596
 6749SOL    HW120246   4.448   1.097   4.041  0.0242  1.5356 -1.8333
 6749SOL    HW220247   4.336   1.080   4.142  1.6188 -0.5923 -0.3166
 6750SOL     OW20248   3.242   3.337   2.439 -0.1420  0.1101  0.9672
 6750SOL    HW120249   3.278   3.409   2.492 -2.4198  0.7088  1.8042
 6750SOL    HW220250   3.267   3.258   2.487 -0.0368  0.4992  1.5718
 6751SOL     OW20251   1.695   4.998   0.375  0.2097 -0.2626  0.1316
 6751SOL    HW120252   1.726   4.939   0.306 -0.6190  0.9226 -1.3100
 6751SOL    HW220253   1.774   5.018   0.425  1.0377 -0.3785 -1.0664
 6752SOL     OW20254   5.972   2.940   0.786 -0.2906 -0.1643  0.3499
 6752SOL    HW120255   5.984   2.933   0.881 -0.4626 -4.7776  0.2386
 6752SOL    HW220256   5.886   2.900   0.770 -0.7586  1.4794 -1.7531
 6753SOL     OW20257   1.490   2.613   0.393  0.0881 -0.1374  0.0335
 6753SOL    HW120258   1.552   2.541   0.403 -0.4908 -0.6751 -0.1922
 6753SOL    HW220259   1.421   2.578   0.336  0.4933  1.0514 -1.2328
 6754SOL     OW20260   2.080   4.309   0.290  0.4356  0.4428 -0.3461
 6754SOL    HW120261   1.985   4.319   0.296  0.3594  0.0429 -0.8637
 6754SOL    HW220262   2.111   4.314   0.380 -0.1276  0.0444 -0.1299
 6755SOL     OW20263   0.269   2.350   1.423  0.1522  0.0109 -0.2090
 6755SOL    HW120264   0.180   2.374   1.450  0.1750 -0.3907  0.2491
 6755SOL    HW220265   0.298   2.288   1.490  0.5389 -0.3501 -0.7042
 6756SOL     OW20266   5.868   2.936   1.101  0.0255 -0.0578  0.0951
 6756SOL    HW120267   5.794   2.903   1.152  0.8498  0.9671  2.0274
 6756SOL    HW220268   5.835   3.015   1.058  0.2819  1.0943  1.9281
 6757SOL     OW20269   0.710   2.105   0.441 -0.5586  0.3005  0.4184
 6757SOL    HW120270   0.624   2.087   0.479  0.0707 -1.2794  1.1635
 6757SOL    HW220271   0.699   2.085   0.348 -0.2237 -3.1178  0.9884
 6758SOL     OW20272   1.404   2.579   1.643 -0.0235 -0.6829  0.0436
 6758SOL    HW120273   1.310   2.585   1.630  0.0533  0.3478 -0.1754
 6758SOL    HW220274   1.418   2.607   1.733  0.1277 -0.1535 -0.1410
 6759SOL     OW20275   5.663   2.925   5.691  0.5419  0.4636 -0.4104
 6759SOL    HW120276   5.706   2.883   5.766  0.8750  0.7917 -0.4157
 6759SOL    HW220277   5.570   2.918   5.710  0.6285  0.6737  0.1114
 6760SOL     OW20278   0.219   1.555   0.266  0.4996  0.5310 -0.2494
 6760SOL    HW120279   0.282   1.553   0.193  1.3387  0.8023  0.4455
 6760SOL    HW220280   0.262   1.610   0.332  0.8591 -1.6457  1.4293
 6761SOL     OW20281   0.253   1.014   1.590  0.4661  0.2749 -0.0810
 6761SOL    HW120282   0.222   1.104   1.590  2.3650  0.9880 -0.2918
 6761SOL    HW220283   0.198   0.968   1.653 -0.0208  1.7734  0.6058
 6762SOL     OW20284   5.650   5.306   0.864  0.4146 -0.1389  0.3230
 6762SOL    HW120285   5.644   5.364   0.788  0.6302  0.5573  0.8241
 6762SOL    HW220286   5.736   5.264   0.856 -0.3939 -1.6616 -0.9152
 6763SOL     OW20287   1.186   4.588   5.235 -0.5038  0.9203 -0.1296
 6763SOL    HW120288   1.198   4.628   5.321 -0.8972  2.8825 -0.9305
 6763SOL    HW220289   1.258   4.623   5.182 -0.3092 -0.2067 -0.6537
 6764SOL     OW20290   2.242   4.188   2.126 -0.5397 -0.3161  0.2489
 6764SOL    HW120291   2.149   4.169   2.119 -0.4869  0.0680 -3.2778
 6764SOL    HW220292   2.284   4.123   2.069  1.2264  0.2458  0.8399
 6765SOL     OW20293   4.071   1.137   1.079 -0.1758  0.0525 -0.2670
 6765SOL    HW120294   4.016   1.212   1.099 -0.0503 -0.4063  2.0138
 6765SOL    HW220295   4.012   1.074   1.037 -0.6268  0.7794 -0.7486
 6766SOL     OW20296   3.401   0.194   4.606  0.2948  0.2224  0.1168
 6766SOL    HW120297   3.412   0.117   4.550  0.1819  0.3494 -0.0794
 6766SOL    HW220298   3.307   0.199   4.621  0.1758  0.9583 -0.7697
 6767SOL     OW20299   0.976   4.292   3.942 -0.0551  0.1431 -0.7493
 6767SOL    HW120300   0.979   4.311   4.036  4.1099  0.2804 -0.7258
 6767SOL    HW220301   0.957   4.377   3.902  0.0205  0.4707 -0.1057
 6768SOL     OW20302   5.899   2.344   3.209 -0.4500  0.2523  0.2398
 6768SOL    HW120303   5.812   2.305   3.209 -2.0153  3.4327  2.1866
 6768SOL    HW220304   5.909   2.380   3.121 -1.0914 -0.0490  0.0375
 6769SOL     OW20305   5.624   2.646   0.772 -0.5413 -0.2297 -0.3491
 6769SOL    HW120306   5.576   2.598   0.839 -1.3577 -0.6301 -1.2053
 6769SOL    HW220307   5.717   2.630   0.793 -0.7907 -1.6970 -0.2873
 6770SOL     OW20308   5.539   4.609   0.980 -0.0061 -0.6556 -0.5517
 6770SOL    HW120309   5.612   4.615   0.918  0.0381 -1.7107 -0.6147
 6770SOL    HW220310   5.547   4.522   1.019 -1.2528 -0.8175 -0.6025
 6771SOL     OW20311   1.788   2.622   2.018  0.1518  0.5692 -0.0551
 6771SOL    HW120312   1.839   2.589   1.944 -0.9798 -2.1949  0.2591
 6771SOL    HW220313   1.852   2.636   2.087  1.0853  2.1942 -1.1839
 6772SOL     OW20314   4.553   5.844   2.874  0.5251 -0.0993  0.4533
 6772SOL    HW120315   4.648   5.843   2.884  0.6977 -0.3424 -1.0363
 6772SOL    HW220316   4.538   5.809   2.786 -0.8316  1.7453 -0.1003
 6773SOL     OW20317   4.830   0.898   2.236  0.3717  0.0315 -0.4080
 6773SOL    HW120318   4.873   0.853   2.308 -2.9127 -1.3630  0.8795
 6773SOL    HW220319   4.829   0.990   2.261 -0.6731 -0.4284  1.3892
 6774SOL     OW20320   1.809   1.680   1.491  0.2196 -0.2771 -0.3029
 6774SOL    HW120321   1.837   1.710   1.577  0.8007  2.7331 -1.4121
 6774SOL    HW220322   1.884   1.632   1.456  0.7910  0.3520  0.0479
 6775SOL     OW20323   5.218   2.722   1.202  0.6518 -0.2565  0.1423
 6775SOL    HW120324   5.157   2.667   1.152  0.1121 -0.5179  1.0585
 6775SOL    HW220325   5.299   2.719   1.153 -0.1919  0.4519 -1.3576
 6776SOL     OW20326   5.042   1.400   2.556 -0.0531  1.1397 -0.7134
 6776SOL    HW120327   5.120   1.400   2.611  0.7793 -1.2945 -1.7488
 6776SOL    HW220328   5.074   1.378   2.469 -1.8346  0.5769 -1.2716
 6777SOL     OW20329   5.193   2.521   1.698  0.0629  0.4482 -0.1780
 6777SOL    HW120330   5.285   2.497   1.706 -0.4548 -1.4949  0.3677
 6777SOL    HW220331   5.176   2.521   1.604  0.2500 -0.7332 -0.2212
 6778SOL     OW20332   1.833   5.963   1.659  0.7553  0.0041 -0.1731
 6778SOL    HW120333   1.873   5.984   1.575  1.7410 -2.0340 -0.2758
 6778SOL    HW220334   1.886   5.892   1.694  0.2285  0.6416  2.0950
 6779SOL     OW20335   5.939   3.188   4.856 -0.6484 -0.9395  0.4944
 6779SOL    HW120336   5.876   3.260   4.862 -0.4609 -0.7518  0.2175
 6779SOL    HW220337   5.912   3.127   4.925 -2.4324 -1.8816 -0.9467
 6780SOL     OW20338   5.162   2.242   2.284 -0.3156  0.2328 -0.7872
 6780SOL    HW120339   5.161   2.208   2.374 -1.2330 -2.6520 -1.7827
 6780SOL    HW220340   5.228   2.189   2.239  0.2126  1.7108 -1.8396
 6781SOL     OW20341   0.482   4.149   4.252  0.2871  0.5020  0.2608
 6781SOL    HW120342   0.506   4.128   4.342 -0.7630 -0.2772  0.3693
 6781SOL    HW220343   0.566   4.165   4.208  0.8436  0.2529  1.2143
 6782SOL     OW20344   0.519   1.412   4.311  0.1632 -0.0191 -0.3018
 6782SOL    HW120345   0.581   1.478   4.277 -0.7720  0.4499 -1.1827
 6782SOL    HW220346   0.498   1.442   4.399  0.6171  0.2256 -0.2715
 6783SOL     OW20347   5.602   3.272   2.027 -0.1413  0.5077  0.2794
 6783SOL    HW120348   5.666   3.338   2.056  0.0925  0.1715  0.5313
 6783SOL    HW220349   5.624   3.257   1.935  0.2333  0.2972  0.3992
 6784SOL     OW20350   4.931   0.065   0.243  0.0130  0.6745  0.0269
 6784SOL    HW120351   4.927   0.160   0.229  0.1189  0.8370  1.0333
 6784SOL    HW220352   5.000   0.054   0.309 -0.6856 -0.0228  0.6494
 6785SOL     OW20353   4.794   4.095   2.272 -0.3078 -0.0042  0.4563
 6785SOL    HW120354   4.808   4.147   2.193 -0.0357  1.0522  1.1709
 6785SOL    HW220355   4.802   4.004   2.243 -0.6010  0.3491 -0.7939
 6786SOL     OW20356   0.483   4.347   3.028  1.3587  0.1630 -0.5056
 6786SOL    HW120357   0.496   4.387   2.941 -1.1367  1.5341 -0.3721
 6786SOL    HW220358   0.527   4.263   3.023  0.7953 -0.0645 -3.3412
 6787SOL     OW20359   5.601   2.640   4.801 -0.4824 -0.1351  0.5570
 6787SOL    HW120360   5.535   2.694   4.843 -0.2342 -0.1380  0.9615
 6787SOL    HW220361   5.561   2.613   4.718  0.0143  2.0102 -0.4425
 6788SOL     OW20362   2.669   1.782   3.810 -0.1319  0.0034  0.2985
 6788SOL    HW120363   2.689   1.787   3.717  2.5845 -1.6378  0.6804
 6788SOL    HW220364   2.724   1.849   3.850 -0.1983 -0.2631  0.8508
 6789SOL     OW20365   5.148   0.583   3.565  0.0429  0.3868  0.1806
 6789SOL    HW120366   5.208   0.536   3.506 -0.0191 -1.8271  1.7489
 6789SOL    HW220367   5.177   0.674   3.561  3.1478 -0.4720  0.3891
 6790SOL     OW20368   4.365   2.741   1.439 -0.9199  0.8991  0.2217
 6790SOL    HW120369   4.361   2.776   1.350 -0.4505  0.0248 -0.1626
 6790SOL    HW220370   4.274   2.721   1.461 -0.9617  0.4091 -0.3664
 6791SOL     OW20371   2.160   1.676   2.852  0.3292 -0.5799  0.2236
 6791SOL    HW120372   2.176   1.644   2.763  0.1586  0.7093 -0.3009
 6791SOL    HW220373   2.066   1.694   2.855  0.6061  1.0687  0.0449
 6792SOL     OW20374   0.433   1.264   1.325  0.2744 -0.0458  0.3372
 6792SOL    HW120375   0.509   1.273   1.268  0.0377 -0.4611 -0.0551
 6792SOL    HW220376   0.446   1.330   1.393 -1.1513  2.9319 -2.0464
 6793SOL     OW20377   1.026   4.226   5.148 -0.2881  0.5478 -1.0383
 6793SOL    HW120378   1.062   4.277   5.221 -0.8466 -1.1021  0.4590
 6793SOL    HW220379   1.074   4.144   5.150 -1.6468 -0.2869 -1.2802
 6794SOL     OW20380   4.256   3.426   3.928 -0.0078 -0.4279  0.6503
 6794SOL    HW120381   4.192   3.435   3.999  0.0477  0.0603  0.6437
 6794SOL    HW220382   4.210   3.458   3.850 -0.5077 -2.1451  0.1899
 6795SOL     OW20383   0.721   4.066   1.497  0.2339 -0.4879  0.1356
 6795SOL    HW120384   0.653   4.118   1.455 -0.7176 -1.0052  0.9962
 6795SOL    HW220385   0.745   4.000   1.431  2.0603  1.4592 -1.2934
 6796SOL     OW20386   4.663   1.713   2.567  0.7802 -0.2074  0.8259
 6796SOL    HW120387   4.758   1.700   2.565  0.4926 -2.7707 -0.0904
 6796SOL    HW220388   4.643   1.754   2.483  0.7865 -3.1307 -0.7493
 6797SOL     OW20389   2.062   1.256   2.053 -0.0893 -0.8264 -0.2681
 6797SOL    HW120390   1.968   1.242   2.042 -0.0272 -0.6103 -1.1804
 6797SOL    HW220391   2.097   1.171   2.079 -0.9313 -0.2622  3.0820
 6798SOL     OW20392   5.306   2.510   4.334  0.4955 -0.2842  0.6315
 6798SOL    HW120393   5.400   2.490   4.331  0.4045 -0.7352  0.6381
 6798SOL    HW220394   5.265   2.426   4.358 -0.0551 -0.5232 -1.0354
 6799SOL     OW20395   0.983   5.285   3.956  0.3379  0.0521 -0.3440
 6799SOL    HW120396   0.981   5.378   3.975  0.1200 -0.4632  2.5480
 6799SOL    HW220397   0.896   5.266   3.920 -0.4077  0.6191  1.0925
 6800SOL     OW20398   4.483   5.120   5.931 -0.6896 -0.0234  0.0058
 6800SOL    HW120399   4.549   5.140   5.864 -1.3442 -1.6975 -1.2227
 6800SOL    HW220400   4.534   5.090   6.006  0.0005 -1.1167 -0.8641
 6801SOL     OW20401   0.261   2.319   1.908 -0.1577  0.4420 -0.4177
 6801SOL    HW120402   0.220   2.285   1.829 -1.1202  0.1918  0.1761
 6801SOL    HW220403   0.251   2.248   1.972  0.0311  0.8960  0.1172
 6802SOL     OW20404   5.890   3.702   2.640 -0.6594 -0.0588  0.7855
 6802SOL    HW120405   5.978   3.685   2.605 -1.0959  1.2238 -1.0545
 6802SOL    HW220406   5.906   3.723   2.732  1.1515  1.3781  0.2214
 6803SOL     OW20407   2.234   3.069   1.050  0.0766 -0.0053 -0.0707
 6803SOL    HW120408   2.261   2.980   1.027 -0.0615 -0.7092  2.1558
 6803SOL    HW220409   2.145   3.058   1.085 -0.3337  1.1807 -0.6937
 6804SOL     OW20410   5.019   2.612   1.949  0.0630  0.4674 -0.3407
 6804SOL    HW120411   5.010   2.550   2.021 -0.7785  2.3243  1.2472
 6804SOL    HW220412   5.082   2.571   1.890  1.6345 -0.6842  1.9705
 6805SOL     OW20413   0.656   0.468   4.598 -0.6622 -0.3057 -0.4968
 6805SOL    HW120414   0.572   0.484   4.555  0.1246  0.5690 -1.7988
 6805SOL    HW220415   0.680   0.553   4.635 -1.4053 -1.0896  1.9115
 6806SOL     OW20416   3.799   3.466   2.696 -0.2929  0.0776  0.1482
 6806SOL    HW120417   3.805   3.513   2.613 -0.2357  2.6445  1.5124
 6806SOL    HW220418   3.718   3.415   2.689 -1.4317  1.9172 -0.7070
 6807SOL     OW20419   5.318   3.181   1.332 -0.4278 -0.3221 -0.3011
 6807SOL    HW120420   5.348   3.091   1.342 -3.3903 -1.4301 -0.2429
 6807SOL    HW220421   5.353   3.227   1.408 -0.1436 -1.8491  0.5268
 6808SOL     OW20422   5.051   1.894   3.619 -0.0483 -0.4005  0.1148
 6808SOL    HW120423   5.088   1.831   3.680  1.1683 -0.0475 -0.2332
 6808SOL    HW220424   5.067   1.856   3.533 -0.6083 -0.2958 -0.0397
 6809SOL     OW20425   5.795   4.307   3.346 -0.3320  0.2789  0.1291
 6809SOL    HW120426   5.825   4.386   3.392  1.6278  0.1755 -0.8758
 6809SOL    HW220427   5.735   4.340   3.279 -0.2536  0.8217  0.3219
 6810SOL     OW20428   0.151   2.410   3.628  0.4696 -0.4557 -0.1779
 6810SOL    HW120429   0.219   2.343   3.635  0.8828 -0.2178 -1.6448
 6810SOL    HW220430   0.138   2.422   3.534 -1.1733 -0.0519  0.0618
 6811SOL     OW20431   3.984   3.370   0.778  0.2968  0.2158 -0.1417
 6811SOL    HW120432   4.063   3.422   0.793  0.8637 -0.4495 -0.7541
 6811SOL    HW220433   3.956   3.393   0.690  0.6155 -0.6000 -0.4565
 6812SOL     OW20434   5.575   3.882   3.709 -0.1333 -0.0747 -0.9822
 6812SOL    HW120435   5.603   3.973   3.697  0.9972 -0.5658 -2.2505
 6812SOL    HW220436   5.589   3.865   3.803  1.6234  0.4377 -1.1213
 6813SOL     OW20437   4.704   2.693   4.975 -0.3189 -0.6890  0.2200
 6813SOL    HW120438   4.711   2.704   4.880  3.4356 -1.4979  0.2717
 6813SOL    HW220439   4.763   2.621   4.996 -0.2342  0.1213  3.2752
 6814SOL     OW20440   5.750   1.122   2.344 -0.4046  0.4174  0.4124
 6814SOL    HW120441   5.800   1.079   2.414  0.7580 -0.2880 -0.8039
 6814SOL    HW220442   5.730   1.052   2.282  0.4245  1.3661 -0.9888
 6815SOL     OW20443   0.897   1.235   0.845  0.2676  0.1561 -0.0560
 6815SOL    HW120444   0.869   1.211   0.756 -1.3713 -1.9629  0.9334
 6815SOL    HW220445   0.874   1.328   0.853 -0.7494  0.0663 -1.4301
 6816SOL     OW20446   3.622   2.253   4.288 -0.0125 -1.0478 -0.0080
 6816SOL    HW120447   3.706   2.296   4.305 -0.1859 -0.9306  0.5825
 6816SOL    HW220448   3.641   2.159   4.295  0.2900 -1.0592 -0.9324
 6817SOL     OW20449   4.534   3.316   3.720 -0.3923 -0.5515  0.1982
 6817SOL    HW120450   4.619   3.273   3.709 -0.5268 -0.5491 -0.9977
 6817SOL    HW220451   4.555   3.409   3.725 -0.2810 -0.5904  0.4637
 6818SOL     OW20452   0.343   2.769   3.687  0.2118 -0.1663  0.0455
 6818SOL    HW120453   0.385   2.831   3.628 -0.9545  0.2261 -0.4031
 6818SOL    HW220454   0.270   2.733   3.636 -0.8892  0.2595  1.2665
 6819SOL     OW20455   1.310   3.248   2.971 -0.2450  0.3698 -0.2544
 6819SOL    HW120456   1.222   3.250   3.009  0.2687 -1.8117  1.2517
 6819SOL    HW220457   1.299   3.203   2.887 -0.4898 -0.5152  0.2412
 6820SOL     OW20458   4.611   3.490   1.516 -0.2256  0.3390 -0.1825
 6820SOL    HW120459   4.652   3.415   1.472 -0.1624  0.4184 -0.2600
 6820SOL    HW220460   4.635   3.480   1.608  0.3139  0.6001 -0.2845
 6821SOL     OW20461   5.756   4.601   5.360 -0.1143  0.0994 -0.6267
 6821SOL    HW120462   5.758   4.672   5.296 -0.8215  0.0401 -0.7264
 6821SOL    HW220463   5.695   4.631   5.428 -0.7086 -0.5565 -0.8537
 6822SOL     OW20464   0.293   3.376   4.314 -0.5674 -0.1493  0.5808
 6822SOL    HW120465   0.344   3.310   4.361 -1.2408 -1.6714 -0.7168
 6822SOL    HW220466   0.353   3.408   4.246 -0.4874 -0.0066  0.7201
 6823SOL     OW20467   0.221   3.189   4.897 -0.0248  0.2396 -0.7077
 6823SOL    HW120468   0.130   3.217   4.892 -0.4120 -0.6907  0.6666
 6823SOL    HW220469   0.265   3.260   4.944 -0.5229 -0.3274  0.6542
 6824SOL     OW20470   3.179   0.569   4.318 -0.4274  0.2483 -0.5254
 6824SOL    HW120471   3.240   0.620   4.371 -0.0706 -1.0033  0.3120
 6824SOL    HW220472   3.142   0.632   4.256  1.2246  1.1677 -0.6253
 6825SOL     OW20473   5.792   2.405   5.281  0.8215 -0.4398  0.3795
 6825SOL    HW120474   5.884   2.379   5.273  1.1483  0.2021  1.7646
 6825SOL    HW220475   5.758   2.402   5.191  1.7462 -2.2596  0.0441
 6826SOL     OW20476   4.933   0.330   5.407 -1.1049 -0.5545  0.4452
 6826SOL    HW120477   5.021   0.351   5.377 -1.7877  0.9283 -0.6785
 6826SOL    HW220478   4.945   0.267   5.478  0.8743  0.0933  0.7313
 6827SOL     OW20479   2.373   4.173   4.885 -0.1054  0.1459 -0.3592
 6827SOL    HW120480   2.424   4.093   4.873  0.5766  0.7740 -1.9953
 6827SOL    HW220481   2.385   4.195   4.978  0.4340 -1.1328 -0.0969
 6828SOL     OW20482   0.159   3.284   0.117  0.5300 -0.5041 -0.4990
 6828SOL    HW120483   0.096   3.354   0.132  1.3600  0.0002  0.8588
 6828SOL    HW220484   0.107   3.210   0.087 -0.8500 -0.3708  1.4213
 6829SOL     OW20485   0.027   3.176   0.993  0.5123 -0.3204 -0.1627
 6829SOL    HW120486   0.117   3.144   0.991  0.5087 -0.3711  0.4010
 6829SOL    HW220487   0.030   3.252   1.050  0.2177 -0.2667 -0.2184
 6830SOL     OW20488   1.238   2.125   1.898 -0.0386  1.0354  0.1880
 6830SOL    HW120489   1.280   2.084   1.973 -0.7671  0.2471  0.1800
 6830SOL    HW220490   1.288   2.206   1.884  2.1416 -0.3300 -0.4740
 6831SOL     OW20491   0.135   2.813   5.393  0.9068  0.1827  0.2384
 6831SOL    HW120492   0.059   2.857   5.432  0.2944 -0.4302 -0.2278
 6831SOL    HW220493   0.202   2.881   5.388  0.6389  0.5457  1.3496
 6832SOL     OW20494   1.095   1.354   4.864 -0.1361 -0.6344  0.4796
 6832SOL    HW120495   1.063   1.300   4.937 -0.8749 -0.1829  0.4964
 6832SOL    HW220496   1.069   1.443   4.887  0.5889 -0.3443  0.1796
 6833SOL     OW20497   5.238   2.591   5.513 -0.1898 -0.8024  0.0081
 6833SOL    HW120498   5.295   2.561   5.442 -1.5961 -2.1939 -0.5984
 6833SOL    HW220499   5.149   2.578   5.480 -0.9030  1.7115  0.7638
 6834SOL     OW20500   5.012   2.444   2.149  0.1263 -0.1219 -0.5728
 6834SOL    HW120501   5.092   2.398   2.175 -0.4012 -1.2941 -0.9719
 6834SOL    HW220502   4.949   2.375   2.131 -1.7841  0.7801  2.0812
 6835SOL     OW20503   0.902   0.352   5.018 -0.1900  0.1365  0.1075
 6835SOL    HW120504   0.869   0.378   4.932 -1.1961 -0.4844  0.2871
 6835SOL    HW220505   0.974   0.292   4.999 -0.2434  0.2047 -0.3148
 6836SOL     OW20506   5.137   2.727   5.915 -0.2130 -0.1894 -0.6492
 6836SOL    HW120507   5.143   2.795   5.982 -1.1214 -2.6647  2.1592
 6836SOL    HW220508   5.228   2.708   5.893  0.0690  2.4168 -2.2080
 6837SOL     OW20509   2.290   2.341   4.000  0.5887  0.2194  0.9815
 6837SOL    HW120510   2.299   2.345   3.905  2.8527 -0.1306  1.1148
 6837SOL    HW220511   2.226   2.271   4.015  1.2803 -0.7416 -0.2935
 6838SOL     OW20512   1.827   3.056   2.236 -0.0420  0.0612  0.0957
 6838SOL    HW120513   1.871   3.133   2.273  1.2322  0.8904 -2.8547
 6838SOL    HW220514   1.739   3.086   2.216  0.6042  1.0025 -1.5329
 6839SOL     OW20515   1.436   3.592   4.524 -0.0254  0.1711  0.6727
 6839SOL    HW120516   1.517   3.551   4.555 -0.2910 -0.6498  0.3207
 6839SOL    HW220517   1.456   3.685   4.517  0.3741  0.2232  2.2345
 6840SOL     OW20518   5.614   2.093   3.382  0.2489 -0.5325  0.4722
 6840SOL    HW120519   5.701   2.091   3.423  0.9240  2.5481 -0.5274
 6840SOL    HW220520   5.562   2.147   3.441  0.0887  0.5873 -0.6517
 6841SOL     OW20521   4.241   4.515   5.131  0.3538 -0.0131  0.1289
 6841SOL    HW120522   4.240   4.419   5.125  1.0079  0.0624 -4.2968
 6841SOL    HW220523   4.322   4.535   5.179  1.0531 -1.6974 -0.2693
 6842SOL     OW20524   0.488   0.969   4.377 -0.1494  0.4408  0.0755
 6842SOL    HW120525   0.506   1.032   4.306 -1.0386  1.0565  0.3890
 6842SOL    HW220526   0.475   0.885   4.332  0.9957  0.4739 -0.3507
 6843SOL     OW20527   0.507   3.230   5.413 -0.6648 -0.5302 -0.0350
 6843SOL    HW120528   0.488   3.286   5.337  1.6420  1.1959  0.5693
 6843SOL    HW220529   0.438   3.252   5.476 -0.7167  0.4514 -0.4115
 6844SOL     OW20530   0.504   1.491   4.572  0.6815  0.0837 -0.7124
 6844SOL    HW120531   0.580   1.446   4.608 -0.3961 -0.2007  1.3660
 6844SOL    HW220532   0.497   1.571   4.623 -0.7261 -0.1762 -0.4495
 6845SOL     OW20533   2.278   0.392   5.635  0.3069  0.1829 -0.0546
 6845SOL    HW120534   2.241   0.348   5.712  0.4762 -1.4873 -0.8889
 6845SOL    HW220535   2.372   0.392   5.650  0.4118 -0.9345 -0.6410
 6846SOL     OW20536   0.204   1.695   4.669 -0.1796  0.4306  0.6559
 6846SOL    HW120537   0.131   1.728   4.721  0.9731  1.6018  1.5569
 6846SOL    HW220538   0.281   1.710   4.722  0.7660 -0.6699 -0.3445
 6847SOL     OW20539   5.780   3.947   4.349 -0.3259  0.2894  0.4042
 6847SOL    HW120540   5.789   4.008   4.421 -1.5775  1.2168 -0.1958
 6847SOL    HW220541   5.804   3.862   4.386  1.1026  1.0623  1.3356
 6848SOL     OW20542   0.759   4.035   4.578 -0.1769  0.2228  0.5148
 6848SOL    HW120543   0.780   4.020   4.486 -0.8000 -1.5332  0.6192
 6848SOL    HW220544   0.827   3.987   4.626 -0.4283  0.2946  0.9503
 6849SOL     OW20545   0.974   3.356   5.295  0.3517  0.2075 -0.4508
 6849SOL    HW120546   0.883   3.385   5.287  0.4631  1.2958  1.5156
 6849SOL    HW220547   0.997   3.323   5.208 -2.6527 -2.3657 -0.4566
 6850SOL     OW20548   0.030   1.177   5.473  0.4333  0.1289 -0.6287
 6850SOL    HW120549   0.105   1.136   5.515 -0.5395  0.9622  2.1033
 6850SOL    HW220550  -0.019   1.104   5.435 -0.0164 -1.0640  2.0291
 6851SOL     OW20551   6.012   3.063   0.014 -0.3965  0.5061 -0.5093
 6851SOL    HW120552   5.925   3.035   0.043  0.6584 -1.4691  0.9917
 6851SOL    HW220553   6.050   2.986  -0.028  2.3506 -0.3569  3.0762
 6852SOL     OW20554   1.130   4.857   2.897 -0.4948  0.4858 -0.4949
 6852SOL    HW120555   1.187   4.894   2.965 -0.6015  1.6447 -1.0201
 6852SOL    HW220556   1.117   4.766   2.925  0.6212  0.5327  0.2757
 6853SOL     OW20557   5.784   1.286   2.836  0.6642 -0.0019 -0.1143
 6853SOL    HW120558   5.758   1.208   2.788  0.6936  0.7907 -1.4826
 6853SOL    HW220559   5.755   1.359   2.781  1.9976  0.9479  0.3687
 6854SOL     OW20560   5.288   0.471   1.791 -0.4049  0.1331  0.2528
 6854SOL    HW120561   5.350   0.538   1.821 -0.6630  0.5460 -0.1102
 6854SOL    HW220562   5.247   0.511   1.714  0.3210 -0.9387 -0.7259
 6855SOL     OW20563   2.962   3.363   3.016  0.4498 -0.2399 -0.4686
 6855SOL    HW120564   2.947   3.389   2.925 -1.4872  1.3620  0.2464
 6855SOL    HW220565   2.875   3.361   3.056  1.3397  0.2775  1.6470
 6856SOL     OW20566   4.840   2.188   2.051 -0.5385  0.8310 -0.0276
 6856SOL    HW120567   4.749   2.200   2.078 -0.7274 -1.8508  0.8587
 6856SOL    HW220568   4.834   2.148   1.964 -0.3894 -1.5633  0.9771
 6857SOL     OW20569   0.154   5.107   1.224 -0.0047 -0.2400  0.3431
 6857SOL    HW120570   0.080   5.053   1.199 -0.2497  0.3419 -0.2113
 6857SOL    HW220571   0.229   5.068   1.179  0.0729 -0.9266  1.0339
 6858SOL     OW20572   0.499   1.931   3.174 -0.1021 -0.1039  0.0796
 6858SOL    HW120573   0.494   1.836   3.173 -1.5271 -0.0660  0.7445
 6858SOL    HW220574   0.512   1.954   3.266 -0.4269  0.3451  0.0220
 6859SOL     OW20575   4.875   1.576   5.607  0.2376 -0.0665  0.1351
 6859SOL    HW120576   4.826   1.610   5.533  0.8494  0.7396  0.0817
 6859SOL    HW220577   4.826   1.604   5.684 -0.4944 -1.0583  0.0461
 6860SOL     OW20578   4.848   5.817   5.275 -0.3752 -0.3754 -0.1472
 6860SOL    HW120579   4.894   5.816   5.190 -1.8372  0.4463 -0.9883
 6860SOL    HW220580   4.917   5.835   5.339  1.1965 -3.2160 -0.8326
 6861SOL     OW20581   0.592   1.699   4.209  0.2638  0.2765 -0.6371
 6861SOL    HW120582   0.681   1.674   4.184  0.6364 -0.7796  1.5641
 6861SOL    HW220583   0.591   1.794   4.202  1.3468  0.2559 -1.3307
 6862SOL     OW20584   0.798   1.923   1.096 -0.2292 -0.7159 -0.1728
 6862SOL    HW120585   0.807   1.892   1.185 -1.5244  0.6904  0.4974
 6862SOL    HW220586   0.767   1.847   1.046  1.4305 -1.7657  0.3333
 6863SOL     OW20587   1.125   3.004   3.109  0.2226 -0.0664  0.2682
 6863SOL    HW120588   1.109   2.931   3.050  1.7114 -1.1137  1.0967
 6863SOL    HW220589   1.077   3.077   3.070  1.3966 -0.6099 -2.4254
 6864SOL     OW20590   5.755   2.852   4.018 -0.8195 -0.0077 -0.2126
 6864SOL    HW120591   5.805   2.771   4.012 -2.4540 -1.4532  3.1130
 6864SOL    HW220592   5.769   2.882   4.108 -1.4576  2.6463 -0.8975
 6865SOL     OW20593   2.293   1.239   0.515 -0.3918  0.8131 -0.4081
 6865SOL    HW120594   2.252   1.195   0.441 -1.4983  1.3049 -0.1107
 6865SOL    HW220595   2.373   1.278   0.479 -0.6201  0.5592 -1.2091
 6866SOL     OW20596   0.320   0.733   5.001  0.3327  0.5349  0.3090
 6866SOL    HW120597   0.388   0.781   4.955  1.3717 -0.6791  0.5206
 6866SOL    HW220598   0.238   0.764   4.962  1.1090  0.3512 -1.5974
 6867SOL     OW20599   1.009   3.386   3.498 -0.0831  0.8213 -0.0758
 6867SOL    HW120600   1.098   3.390   3.535 -0.1077  1.6558 -0.0865
 6867SOL    HW220601   0.951   3.395   3.573 -0.1840 -0.1835 -0.0099
 6868SOL     OW20602   0.731   4.022   5.406 -0.0874 -0.2039  0.8841
 6868SOL    HW120603   0.763   3.948   5.355 -0.4405  0.0620  0.2526
 6868SOL    HW220604   0.806   4.050   5.458  0.8457  0.6097 -0.8083
 6869SOL     OW20605   4.255   2.244   5.021  0.1648 -0.4527 -0.2628
 6869SOL    HW120606   4.178   2.270   4.970  0.3609  0.9617  0.1090
 6869SOL    HW220607   4.238   2.278   5.109  0.6716 -1.2179  0.1455
 6870SOL     OW20608   5.398   5.728   4.361 -0.0407  0.0490 -0.0503
 6870SOL    HW120609   5.312   5.771   4.354  0.2602  0.3980 -2.3850
 6870SOL    HW220610   5.384   5.640   4.328  0.1328 -0.5500  1.3835
 6871SOL     OW20611   5.615   1.454   4.112  0.3470  0.4205  0.0807
 6871SOL    HW120612   5.703   1.463   4.148  0.1518 -2.4248  1.6205
 6871SOL    HW220613   5.627   1.412   4.027  0.4889  0.5674  0.0276
 6872SOL     OW20614   3.013   4.247   5.972 -0.5119 -0.0232  0.2636
 6872SOL    HW120615   2.954   4.273   6.042 -0.6769  0.8843 -0.2032
 6872SOL    HW220616   2.981   4.293   5.895 -0.5142 -1.2294 -0.4909
 6873SOL     OW20617   0.705   4.557   5.148 -0.0578 -0.1069 -0.0943
 6873SOL    HW120618   0.651   4.532   5.074  0.6065  2.4407 -1.5420
 6873SOL    HW220619   0.791   4.576   5.110  0.2094  1.6145  1.2514
 6874SOL     OW20620   3.527   5.788   4.883  0.2575  0.3565  0.0899
 6874SOL    HW120621   3.505   5.868   4.929 -0.9526  0.3405 -0.4178
 6874SOL    HW220622   3.485   5.718   4.934  1.6813 -0.0264  0.7859
 6875SOL     OW20623   1.044   0.562   0.301 -0.0406  0.7771 -0.1099
 6875SOL    HW120624   1.039   0.647   0.343 -0.6075  0.4074  0.5808
 6875SOL    HW220625   0.954   0.539   0.281  0.0519  0.0876  0.2317
 6876SOL     OW20626   4.722   4.647   1.484  0.5636  0.4181 -1.0786
 6876SOL    HW120627   4.682   4.694   1.411  0.5247  1.6095 -0.3070
 6876SOL    HW220628   4.693   4.694   1.562  2.5942  0.6725 -0.4272
 6877SOL     OW20629   1.106   4.164   0.935  0.0036  0.0671 -0.0998
 6877SOL    HW120630   1.076   4.174   0.845  0.0963  0.1216 -0.1243
 6877SOL    HW220631   1.157   4.243   0.953  2.6715 -1.3225 -1.0437
 6878SOL     OW20632   4.614   4.128   4.561 -0.1086 -0.1158  0.0844
 6878SOL    HW120633   4.671   4.141   4.637 -0.9625  0.0827  0.7033
 6878SOL    HW220634   4.540   4.078   4.595 -1.3311  1.4095 -0.2266
 6879SOL     OW20635   4.237   0.723   4.537  0.6921 -0.3294 -0.2457
 6879SOL    HW120636   4.290   0.753   4.463  0.9624 -0.1898 -0.0004
 6879SOL    HW220637   4.161   0.681   4.497  0.4789  0.3779 -0.5972
 6880SOL     OW20638   5.587   0.245   2.352 -0.2053  0.5151 -0.4887
 6880SOL    HW120639   5.680   0.248   2.331  0.3708  2.7513  1.8779
 6880SOL    HW220640   5.574   0.160   2.393  0.2643 -0.7112 -2.7571
 6881SOL     OW20641   5.754   3.955   1.439 -0.3386  0.0911 -0.1216
 6881SOL    HW120642   5.778   3.903   1.516  0.7916 -0.6307 -0.9158
 6881SOL    HW220643   5.774   4.045   1.463 -0.4304 -0.0711  0.5852
 6882SOL     OW20644   2.902   2.803   1.093 -0.1420 -0.3654  0.1556
 6882SOL    HW120645   2.971   2.774   1.034  0.8186 -0.3983  1.2616
 6882SOL    HW220646   2.822   2.794   1.042  0.6777 -0.1333 -1.2223
 6883SOL     OW20647   0.397   0.136   1.321  0.1899 -0.1631 -0.0352
 6883SOL    HW120648   0.371   0.044   1.320 -1.8354  0.3491 -1.6560
 6883SOL    HW220649   0.337   0.177   1.383 -1.2066  0.5912 -1.8163
 6884SOL     OW20650   5.697   1.082   5.431  0.7842 -0.0641  0.5027
 6884SOL    HW120651   5.606   1.052   5.432  1.0034 -0.7341  0.7111
 6884SOL    HW220652   5.710   1.121   5.518  0.7711 -0.2101  0.5716
 6885SOL     OW20653   2.825   0.107   4.034 -0.2851 -0.1654  0.5731
 6885SOL    HW120654   2.797   0.191   4.071 -0.3461 -1.3520  3.4226
 6885SOL    HW220655   2.901   0.129   3.981 -0.3964  1.7109  1.1292
 6886SOL     OW20656   4.443   3.983   0.146 -0.2557  0.3550 -0.0802
 6886SOL    HW120657   4.440   4.076   0.128  0.0517  0.3394 -0.2233
 6886SOL    HW220658   4.529   3.969   0.187  0.4381 -0.1393 -1.6350
 6887SOL     OW20659   1.083   0.933   0.989 -0.0542  0.4081  0.2040
 6887SOL    HW120660   1.128   0.949   1.072  1.5303  1.0378 -0.7219
 6887SOL    HW220661   1.154   0.932   0.924 -1.2070 -0.5115 -1.0826
 6888SOL     OW20662   5.557   0.485   1.673 -0.7186 -0.0420  0.1253
 6888SOL    HW120663   5.514   0.526   1.748 -0.4138  0.9239 -0.2110
 6888SOL    HW220664   5.492   0.425   1.637 -1.2226  0.2538  0.5453
 6889SOL     OW20665   3.341   4.110   3.538  0.1433  0.2919 -0.4073
 6889SOL    HW120666   3.424   4.136   3.579  0.9182 -1.2296 -0.9384
 6889SOL    HW220667   3.361   4.106   3.444 -0.4203 -0.4199 -0.5073
 6890SOL     OW20668   3.534   4.871   4.797  0.3471  0.0229 -0.2999
 6890SOL    HW120669   3.620   4.911   4.786 -0.2343  1.5399  0.3176
 6890SOL    HW220670   3.473   4.936   4.761 -0.7663  0.4987  2.2437
 6891SOL     OW20671   1.046   4.734   2.218  0.0896 -0.4298 -0.0012
 6891SOL    HW120672   1.104   4.771   2.151 -0.4201  1.0808  0.3452
 6891SOL    HW220673   1.098   4.737   2.299 -0.4379  0.9180  0.3080
 6892SOL     OW20674   2.671   2.588   2.465 -0.0964  0.1133 -0.8583
 6892SOL    HW120675   2.720   2.627   2.537 -1.5089 -1.0020  0.8125
 6892SOL    HW220676   2.591   2.640   2.458 -0.8212 -0.8855 -0.3234
 6893SOL     OW20677   5.246   3.342   2.994 -0.2529  0.1441  0.6076
 6893SOL    HW120678   5.237   3.375   2.905  2.8945  3.1914  1.2179
 6893SOL    HW220679   5.168   3.376   3.039 -0.1247  1.5956 -0.2077
 6894SOL     OW20680   4.494   0.797   4.936  0.4016 -0.0945  0.1655
 6894SOL    HW120681   4.468   0.787   5.027 -0.4423  0.1860 -0.0403
 6894SOL    HW220682   4.545   0.877   4.934  0.6981 -0.2745  0.4494
 6895SOL     OW20683   2.830   3.003   4.892 -0.2371 -0.1383  0.0296
 6895SOL    HW120684   2.825   2.976   4.984 -0.9204 -0.7149 -0.1636
 6895SOL    HW220685   2.817   2.922   4.843 -1.6479  0.4140 -0.5657
 6896SOL     OW20686   4.678   0.241   1.696 -0.3839 -0.1743  0.4164
 6896SOL    HW120687   4.617   0.313   1.680 -0.1972  0.0315  0.6082
 6896SOL    HW220688   4.654   0.174   1.632 -0.8367 -0.1137  0.5153
 6897SOL     OW20689   5.387   2.586   4.621 -0.2476 -0.3020  0.5812
 6897SOL    HW120690   5.407   2.499   4.589 -0.9169 -0.3932  0.3860
 6897SOL    HW220691   5.359   2.635   4.543 -1.4271 -0.3865  0.9211
 6898SOL     OW20692   0.560   5.036   1.268  0.5236  0.1014 -0.2903
 6898SOL    HW120693   0.635   4.978   1.257  1.4353  1.0158  0.8087
 6898SOL    HW220694   0.587   5.118   1.229  0.2915  0.5787  0.5169
 6899SOL     OW20695   3.970   4.886   2.505  0.3481  0.2986  0.5208
 6899SOL    HW120696   4.035   4.824   2.537 -0.1980 -1.9387 -2.3366
 6899SOL    HW220697   3.938   4.930   2.584  0.9361 -2.8806  2.7201
 6900SOL     OW20698   5.458   0.229   2.638  0.1654  0.0157 -0.0581
 6900SOL    HW120699   5.394   0.198   2.702  1.0772  0.2755  1.0129
 6900SOL    HW220700   5.423   0.202   2.553 -0.5997 -1.1668  0.6149
 6901SOL     OW20701   5.137   1.710   0.727 -0.0164 -0.3475 -0.1163
 6901SOL    HW120702   5.119   1.765   0.651 -0.7276  0.1703  0.4193
 6901SOL    HW220703   5.212   1.751   0.770 -1.1314  0.7984  0.8188
 6902SOL     OW20704   2.047   1.082   0.614 -0.1417 -0.5270 -0.1561
 6902SOL    HW120705   2.079   1.116   0.530  0.4241  0.6140  0.5104
 6902SOL    HW220706   2.047   1.157   0.672  0.0837 -1.4459  1.0635
 6903SOL     OW20707   0.072   4.615   0.681  0.6868 -0.1168  0.1308
 6903SOL    HW120708   0.096   4.587   0.593 -0.7016  0.8979 -0.6211
 6903SOL    HW220709   0.040   4.535   0.724  3.4269 -1.0961  0.5422
 6904SOL     OW20710   4.897   4.435   4.845 -0.2637 -0.0483 -0.4197
 6904SOL    HW120711   4.848   4.515   4.827  1.6819  1.6181  1.0844
 6904SOL    HW220712   4.876   4.413   4.936  1.0448  0.2280 -0.0191
 6905SOL     OW20713   5.406   5.761   4.779  0.3893 -0.0949 -0.4446
 6905SOL    HW120714   5.419   5.837   4.835 -0.8028 -0.2843  0.1008
 6905SOL    HW220715   5.386   5.798   4.693 -0.6209  0.2284 -0.0819
 6906SOL     OW20716   4.733   3.882   0.546 -0.7757  0.9077  0.0572
 6906SOL    HW120717   4.640   3.902   0.552 -0.8925  0.4033  0.0319
 6906SOL    HW220718   4.740   3.794   0.583 -0.3979  0.7058 -0.4835
 6907SOL     OW20719   0.672   2.721   0.483  0.1471 -0.3671  0.2990
 6907SOL    HW120720   0.681   2.775   0.404 -2.2215  0.3339  0.4042
 6907SOL    HW220721   0.690   2.632   0.454 -0.3183 -0.0743 -0.9711
 6908SOL     OW20722   1.576   5.989   4.222  0.1294  0.1879 -0.4907
 6908SOL    HW120723   1.540   6.004   4.135 -1.8511  0.5219  0.3184
 6908SOL    HW220724   1.663   5.953   4.207 -0.1284  0.3324 -2.5874
 6909SOL     OW20725   1.068   5.759   0.235 -0.1707  0.8970  0.0552
 6909SOL    HW120726   0.989   5.714   0.207  0.1469  0.2926  0.1298
 6909SOL    HW220727   1.079   5.736   0.328  0.8067 -0.0947 -0.2817
 6910SOL     OW20728   4.240   0.012   4.982  0.1900  0.9590 -0.1074
 6910SOL    HW120729   4.150  -0.001   4.952  0.6336  0.4608 -1.2545
 6910SOL    HW220730   4.230   0.059   5.065 -1.1205  1.0023 -0.2605
 6911SOL     OW20731   0.642   3.581   5.310 -0.1030  0.0118 -0.4943
 6911SOL    HW120732   0.587   3.565   5.234 -2.1896  0.7152  0.7754
 6911SOL    HW220733   0.583   3.569   5.385  2.1411 -1.9097  1.1312
 6912SOL     OW20734   4.681   4.191   1.415 -0.0708  0.3438  0.9322
 6912SOL    HW120735   4.709   4.264   1.360 -1.1037 -0.0997 -0.2289
 6912SOL    HW220736   4.620   4.142   1.360 -1.7610  0.3180  2.7485
 6913SOL     OW20737   3.078   3.005   1.817 -0.3223 -0.0794  0.6926
 6913SOL    HW120738   3.155   2.968   1.773 -1.3707 -1.9836  0.3457
 6913SOL    HW220739   3.090   3.100   1.808  1.8144 -0.3076  0.3947
 6914SOL     OW20740   0.052   5.382   1.337 -0.3330 -0.4369  0.1337
 6914SOL    HW120741   0.045   5.306   1.280  0.6081  0.1051 -0.7583
 6914SOL    HW220742   0.050   5.457   1.278 -2.8851  0.3778  1.1026
 6915SOL     OW20743   4.878   0.314   3.016 -0.5053 -0.0658  0.2305
 6915SOL    HW120744   4.859   0.390   2.962  0.2553  0.4023  0.6104
 6915SOL    HW220745   4.796   0.264   3.017 -0.3045 -0.5596 -2.0861
 6916SOL     OW20746   2.543   3.833   1.876 -0.3420  0.2353 -0.0269
 6916SOL    HW120747   2.613   3.896   1.892  0.1387 -0.3056  0.0632
 6916SOL    HW220748   2.549   3.814   1.783  0.3820 -0.6578  0.1850
 6917SOL     OW20749   5.460   5.137   2.484  0.1337  0.1899 -0.2255
 6917SOL    HW120750   5.554   5.119   2.495  0.4258  1.4227 -0.5891
 6917SOL    HW220751   5.434   5.083   2.409  0.9287  1.0706 -1.1557
 6918SOL     OW20752   5.848   3.682   4.410 -0.1785  0.2297 -0.4495
 6918SOL    HW120753   5.807   3.598   4.432  0.7110 -0.1535 -0.1749
 6918SOL    HW220754   5.913   3.659   4.343 -0.1049  0.7408 -0.5530
 6919SOL     OW20755   1.854   4.327   0.029 -0.1869  0.1002  0.3059
 6919SOL    HW120756   1.764   4.297   0.015  0.4559 -1.8118 -0.0333
 6919SOL    HW220757   1.866   4.326   0.124 -0.1605 -0.8573  0.3010
 6920SOL     OW20758   4.054   0.421   1.448 -0.1571 -0.5167  0.5403
 6920SOL    HW120759   3.978   0.431   1.506  1.0897  2.1183  1.9069
 6920SOL    HW220760   4.121   0.381   1.504  0.2433 -0.4193  0.1310
 6921SOL     OW20761   5.394   4.413   2.802 -0.2587 -0.5219  0.1095
 6921SOL    HW120762   5.331   4.459   2.748 -1.2888 -2.5859 -0.5620
 6921SOL    HW220763   5.426   4.478   2.863 -0.5344  1.4152 -1.6961
 6922SOL     OW20764   3.403   2.535   2.028  0.5170 -0.1215 -0.1191
 6922SOL    HW120765   3.495   2.511   2.015  1.2224  1.7738  0.9505
 6922SOL    HW220766   3.385   2.599   1.958  0.1586 -0.1029 -0.0130
 6923SOL     OW20767   5.440   2.030   2.012 -0.2196  0.3763 -0.5878
 6923SOL    HW120768   5.416   1.978   1.935  2.6822  0.4704 -1.6782
 6923SOL    HW220769   5.433   2.120   1.983  1.9213  0.4048 -1.1986
 6924SOL     OW20770   4.643   0.087   4.092 -0.0155  0.4761 -0.4914
 6924SOL    HW120771   4.682   0.156   4.038  1.4779  0.1202  0.0728
 6924SOL    HW220772   4.578   0.046   4.036 -1.7071  2.9651 -0.5385
 6925SOL     OW20773   1.968   1.755   4.589  0.5927  0.2386  0.0304
 6925SOL    HW120774   1.923   1.707   4.520  0.1856 -0.1354  0.5446
 6925SOL    HW220775   1.907   1.825   4.614  1.6405  1.8008 -1.5074
 6926SOL     OW20776   1.294   2.147   3.276 -0.1246 -0.2932  0.4832
 6926SOL    HW120777   1.345   2.207   3.221  0.7314  0.5215  2.0906
 6926SOL    HW220778   1.209   2.190   3.284  0.4270  0.6811  1.4795
 6927SOL     OW20779   5.305  -0.005   4.546 -0.0649  0.4835  0.7728
 6927SOL    HW120780   5.372  -0.059   4.505 -0.3491 -0.6633  1.7547
 6927SOL    HW220781   5.348   0.080   4.561  0.6532  0.2720 -0.0339
 6928SOL     OW20782   0.783   4.345   0.287  0.9322 -0.0031 -0.1900
 6928SOL    HW120783   0.856   4.358   0.348  2.0924 -2.4175 -0.9051
 6928SOL    HW220784   0.811   4.389   0.207  0.9211  0.3658  0.0098
 6929SOL     OW20785   5.891   4.212   1.361 -0.1937 -0.0765 -0.5570
 6929SOL    HW120786   5.901   4.307   1.371 -1.4991  0.2711 -2.1332
 6929SOL    HW220787   5.964   4.175   1.411  1.5012  1.8064 -1.4844
 6930SOL     OW20788   4.996   0.640   1.195  0.7826 -0.1223  0.1418
 6930SOL    HW120789   5.060   0.583   1.154  1.4455  0.2687  0.6029
 6930SOL    HW220790   5.005   0.724   1.150  0.1651 -0.2293 -0.1971
 6931SOL     OW20791   5.535   0.563   2.161 -0.2922  0.3458 -0.0600
 6931SOL    HW120792   5.485   0.586   2.239 -2.6301  1.5135 -1.7663
 6931SOL    HW220793   5.625   0.587   2.181 -0.5888 -0.5058  2.6641
 6932SOL     OW20794   0.420   2.516   4.161  0.0177  0.2371 -0.7502
 6932SOL    HW120795   0.355   2.577   4.125 -0.1524  0.6039  0.1359
 6932SOL    HW220796   0.493   2.573   4.187 -0.9401  0.3779  1.9159
 6933SOL     OW20797   5.566   5.472   2.293  0.0743  0.3743 -0.1989
 6933SOL    HW120798   5.551   5.523   2.214 -2.6164  0.6888  0.4020
 6933SOL    HW220799   5.637   5.412   2.270 -2.0516 -1.1448 -3.6770
 6934SOL     OW20800   4.222   3.598   0.377 -0.0827 -0.7216 -0.8894
 6934SOL    HW120801   4.176   3.585   0.294  1.0929  1.9670 -2.0822
 6934SOL    HW220802   4.308   3.629   0.353  0.1578  0.5893  1.3467
 6935SOL     OW20803   1.148   3.868   1.965 -0.2001  0.2365  0.3190
 6935SOL    HW120804   1.187   3.807   1.902  2.5049  1.9135  0.2403
 6935SOL    HW220805   1.066   3.825   1.992  0.8326 -2.6953 -0.8209
 6936SOL     OW20806   2.468   2.473   3.065  0.0328 -0.2570 -0.3161
 6936SOL    HW120807   2.553   2.431   3.052 -0.3284 -0.9448 -0.5211
 6936SOL    HW220808   2.450   2.518   2.982  0.8988  1.2164  0.2603
 6937SOL     OW20809   5.520   0.679   3.139 -0.2065 -0.3680  0.1802
 6937SOL    HW120810   5.513   0.677   3.044 -1.6251  1.1499  0.2065
 6937SOL    HW220811   5.442   0.634   3.171 -0.3642  0.2007  0.6138
 6938SOL     OW20812   4.592   1.435   5.409 -0.3111 -0.7614 -0.0190
 6938SOL    HW120813   4.551   1.505   5.460  0.8174  0.4917 -0.7580
 6938SOL    HW220814   4.522   1.400   5.354 -0.5540  0.9135 -0.8210
 6939SOL     OW20815   0.338   3.956   4.986  0.2792 -0.0313  0.1385
 6939SOL    HW120816   0.265   3.914   4.942  1.5990 -2.9780  0.5198
 6939SOL    HW220817   0.410   3.953   4.922  0.8071  0.3689  0.6989
 6940SOL     OW20818   0.141   1.020   3.443 -0.5793 -0.3761 -0.3129
 6940SOL    HW120819   0.193   0.975   3.510 -0.0011  0.0367 -0.4748
 6940SOL    HW220820   0.108   0.949   3.388  0.7720 -0.6006 -0.8806
 6941SOL     OW20821   5.410   5.010   4.372 -0.2728  0.2633  0.3946
 6941SOL    HW120822   5.457   4.942   4.324 -2.6344 -1.2346  0.0543
 6941SOL    HW220823   5.391   4.971   4.457 -0.2675  1.1231  0.8051
 6942SOL     OW20824   0.017   0.532   2.417 -0.5914  0.5373 -0.3213
 6942SOL    HW120825   0.062   0.534   2.502  0.4527 -0.7307 -0.8068
 6942SOL    HW220826   0.026   0.621   2.383 -0.3472  0.8585  0.5555
 6943SOL     OW20827   5.147   5.424   2.598  0.3018  0.7087  0.1625
 6943SOL    HW120828   5.077   5.367   2.629  1.1130 -0.6395 -0.4042
 6943SOL    HW220829   5.193   5.451   2.677  1.5420 -1.6272  0.3085
 6944SOL     OW20830   3.778   4.701   0.750 -0.3024  0.2247 -0.0980
 6944SOL    HW120831   3.801   4.752   0.828  0.3366 -0.6379  0.2883
 6944SOL    HW220832   3.839   4.732   0.683 -0.2073  0.2866  0.0149
 6945SOL     OW20833   5.552   3.430   3.708  0.4266 -0.2670  0.1916
 6945SOL    HW120834   5.554   3.436   3.613 -0.4227  1.1170  0.2324
 6945SOL    HW220835   5.477   3.483   3.734  0.2834 -1.1046  1.6098
 6946SOL     OW20836   0.213   1.132   0.156 -0.4311 -0.3990  0.1733
 6946SOL    HW120837   0.150   1.155   0.224  0.6169  0.3651  0.9118
 6946SOL    HW220838   0.210   1.036   0.153 -0.3534 -0.4623  1.4447
 6947SOL     OW20839   3.035   5.407   1.985  0.4257 -0.0956 -1.1394
 6947SOL    HW120840   2.978   5.419   1.910 -1.9580 -0.4436  0.5237
 6947SOL    HW220841   2.980   5.368   2.053  2.5991 -0.3420  0.6388
 6948SOL     OW20842   1.497   3.671   0.244  0.2169 -0.8060  0.1421
 6948SOL    HW120843   1.482   3.579   0.223  1.3522 -0.7159 -1.2164
 6948SOL    HW220844   1.484   3.676   0.339  1.4414 -2.6568  0.4757
 6949SOL     OW20845   1.117   0.132   1.330 -0.5835  0.2959 -0.4055
 6949SOL    HW120846   1.131   0.225   1.345 -1.9767  0.3033  1.2088
 6949SOL    HW220847   1.205   0.094   1.331 -0.1126  1.2942  1.3858
 6950SOL     OW20848   0.543   4.952   2.825 -0.4339  0.0857 -0.5337
 6950SOL    HW120849   0.455   4.960   2.862  0.4716  0.9961  1.6113
 6950SOL    HW220850   0.547   4.862   2.792 -2.1717  0.0502 -0.7837
 6951SOL     OW20851   0.088   4.926   0.250 -0.2010 -1.0921 -0.1898
 6951SOL    HW120852   0.172   4.881   0.258  1.2224  1.5803  0.9613
 6951SOL    HW220853   0.064   4.948   0.340 -2.2240 -1.8320 -0.4912
 6952SOL     OW20854   5.080   2.962   3.513 -0.1888  0.0751 -0.3181
 6952SOL    HW120855   5.065   2.968   3.608 -2.3636 -2.4755 -0.4105
 6952SOL    HW220856   5.104   3.051   3.488 -1.5748  1.3086  2.3033
 6953SOL     OW20857   5.861   4.387   2.197 -0.3348 -0.1950  0.4618
 6953SOL    HW120858   5.795   4.329   2.235  0.2544 -1.2229 -0.0291
 6953SOL    HW220859   5.855   4.370   2.103  0.4650 -0.1225  0.3956
 6954SOL     OW20860   3.868   2.846   4.153  0.0113 -0.5749 -0.0427
 6954SOL    HW120861   3.790   2.792   4.141 -1.3000  0.9785  1.1103
 6954SOL    HW220862   3.866   2.870   4.246  0.6676  1.2376 -0.4635
 6955SOL     OW20863   2.483   5.417   3.695  0.4927 -0.4960  0.7012
 6955SOL    HW120864   2.390   5.436   3.691  0.9037  1.6088 -2.7245
 6955SOL    HW220865   2.514   5.461   3.774 -1.0984  0.3962  0.8542
 6956SOL     OW20866   0.372   5.601   5.377 -0.5593 -0.0003  0.7561
 6956SOL    HW120867   0.403   5.510   5.382 -1.0492 -0.1810  0.6557
 6956SOL    HW220868   0.438   5.646   5.326  0.1326 -0.1009  1.5531
 6957SOL     OW20869   5.029   0.513   5.958 -0.0173 -0.2857  0.6314
 6957SOL    HW120870   5.068   0.477   6.038  0.9918 -1.1064 -0.2060
 6957SOL    HW220871   5.103   0.541   5.906 -0.5252 -1.5262 -0.8415
 6958SOL     OW20872   4.486   4.216   4.315 -0.2879 -0.1373 -0.3351
 6958SOL    HW120873   4.538   4.182   4.388  0.6226  0.9711 -0.4225
 6958SOL    HW220874   4.403   4.243   4.355 -0.0201 -0.0739  0.1877
 6959SOL     OW20875   4.806   1.903   3.786 -1.1151  0.3871  0.3027
 6959SOL    HW120876   4.729   1.893   3.730 -0.8971 -0.6381  0.1596
 6959SOL    HW220877   4.880   1.904   3.725 -0.8784 -0.7145  0.5368
 6960SOL     OW20878   4.276   0.956   5.192 -0.0105 -0.1449 -0.2353
 6960SOL    HW120879   4.354   0.975   5.243 -0.0129 -1.2045  0.1825
 6960SOL    HW220880   4.228   0.892   5.244 -0.8278 -0.0063 -0.7983
 6961SOL     OW20881   0.555   3.998   4.825 -0.2033 -0.2484  0.2830
 6961SOL    HW120882   0.578   4.074   4.771  0.9882 -1.7409 -1.4219
 6961SOL    HW220883   0.635   3.979   4.875  0.2661 -1.6747 -0.9579
 6962SOL     OW20884   0.754   4.266   4.722  0.4099 -0.2344  0.0981
 6962SOL    HW120885   0.810   4.272   4.799 -0.3564 -1.1314  0.7479
 6962SOL    HW220886   0.788   4.190   4.674  0.5185 -0.0356 -0.1381
 6963SOL     OW20887   1.283   3.287   4.745  0.5704 -0.3711 -0.0789
 6963SOL    HW120888   1.328   3.281   4.660  1.8024  0.0246  0.5248
 6963SOL    HW220889   1.315   3.368   4.784 -0.1938 -0.4116  0.6557
 6964SOL     OW20890   3.189   2.702   2.874  0.1573  0.0682 -0.2203
 6964SOL    HW120891   3.219   2.781   2.829  1.2686 -0.5818 -0.6572
 6964SOL    HW220892   3.142   2.653   2.806  1.0398 -0.4849 -0.4404
 6965SOL     OW20893   4.484   5.306   0.797  0.1967 -0.9675 -0.0246
 6965SOL    HW120894   4.470   5.319   0.703 -0.3559 -1.1538  0.0238
 6965SOL    HW220895   4.404   5.340   0.838  0.0816 -1.6144  0.3135
 6966SOL     OW20896   5.256   5.044   0.396  0.0709 -0.5316  0.1543
 6966SOL    HW120897   5.290   5.009   0.478 -0.9044 -0.9830  0.3851
 6966SOL    HW220898   5.318   5.112   0.372 -0.0983  0.2271  1.7288
 6967SOL     OW20899   0.129   4.375   2.778  0.1823  0.4898 -0.2696
 6967SOL    HW120900   0.207   4.320   2.771 -0.2428 -0.0796 -0.6666
 6967SOL    HW220901   0.080   4.338   2.852 -1.8560 -2.0035 -2.6692
 6968SOL     OW20902   0.733   3.621   2.181  0.1947  0.5671 -0.7435
 6968SOL    HW120903   0.686   3.636   2.263 -0.7896  1.0491 -1.3756
 6968SOL    HW220904   0.671   3.574   2.126  1.1357 -0.4922 -0.9424
 6969SOL     OW20905   0.266   3.307   1.988 -0.2559  0.0470 -0.3364
 6969SOL    HW120906   0.227   3.384   2.027 -0.3863  0.1943 -0.7581
 6969SOL    HW220907   0.199   3.239   1.995  0.2789 -0.3792  1.1249
 6970SOL     OW20908   0.155   3.468   5.726 -0.3489 -0.1873 -0.0967
 6970SOL    HW120909   0.213   3.410   5.677 -1.6307 -1.6149 -0.0024
 6970SOL    HW220910   0.109   3.520   5.660 -0.6334 -0.7072 -0.3121
 6971SOL     OW20911   5.063   3.001   5.745  0.0952 -0.2841  0.0841
 6971SOL    HW120912   5.095   2.979   5.657  1.0595  0.1429  0.3227
 6971SOL    HW220913   4.991   3.062   5.729  1.5634  1.3936 -0.3647
 6972SOL     OW20914   1.155   0.913   4.338  0.2354 -0.3338  0.0225
 6972SOL    HW120915   1.086   0.968   4.300  0.5438 -1.1491 -1.8318
 6972SOL    HW220916   1.125   0.894   4.426 -0.1457  2.3216  0.5561
 6973SOL     OW20917   2.290   4.794   5.564  0.1350  0.1290 -0.7223
 6973SOL    HW120918   2.229   4.787   5.490 -0.1182  0.5137 -0.5517
 6973SOL    HW220919   2.373   4.819   5.524 -0.0154  0.3900 -0.8725
 6974SOL     OW20920   0.947   5.927   1.220  0.5302  0.3499  0.0534
 6974SOL    HW120921   1.011   5.860   1.244  0.8126  0.3131 -0.7812
 6974SOL    HW220922   0.997   6.008   1.219  0.4706  0.3829 -0.2036
 6975SOL     OW20923   1.316   2.605   4.010  0.6383 -0.4943  0.6574
 6975SOL    HW120924   1.296   2.696   3.990  0.4681 -0.8232 -0.7678
 6975SOL    HW220925   1.273   2.589   4.094  0.0889  0.5395  0.5874
 6976SOL     OW20926   0.816   4.223   3.204 -0.2410 -0.3295  0.5359
 6976SOL    HW120927   0.860   4.308   3.199  0.6589 -0.8265 -0.4175
 6976SOL    HW220928   0.886   4.159   3.189 -1.5028 -1.1296 -2.6564
 6977SOL     OW20929   5.906   4.816   0.004  0.3599 -0.0133  0.0217
 6977SOL    HW120930   5.870   4.897   0.043  0.8980  0.7383 -1.0039
 6977SOL    HW220931   5.965   4.782   0.071  2.2806  1.9697 -0.5509
 6978SOL     OW20932   5.316   3.785   4.470  0.5350 -0.4642  0.1042
 6978SOL    HW120933   5.230   3.826   4.467  0.0878 -1.4104 -1.0794
 6978SOL    HW220934   5.357   3.819   4.549 -0.2937  1.2536 -0.1723
 6979SOL     OW20935   0.849   4.819   5.287 -0.2542 -0.7600  0.0214
 6979SOL    HW120936   0.822   4.905   5.319  1.2985 -0.3136  0.1850
 6979SOL    HW220937   0.796   4.757   5.337 -1.6688  0.0783 -0.3630
 6980SOL     OW20938   4.827   4.754   5.239 -0.0322  0.5237  0.3261
 6980SOL    HW120939   4.893   4.687   5.251 -0.5291 -0.2786 -1.1050
 6980SOL    HW220940   4.846   4.820   5.305  0.3460 -1.1164  1.9170
 6981SOL     OW20941   5.897   0.933   1.658 -0.2238 -0.5867 -0.0925
 6981SOL    HW120942   5.879   1.011   1.605 -1.5221 -0.6625  0.1939
 6981SOL    HW220943   5.814   0.885   1.658 -0.1152 -0.8492  1.5660
 6982SOL     OW20944   4.769   5.382   1.268 -0.6611  0.2341 -0.0874
 6982SOL    HW120945   4.838   5.433   1.310 -0.9096  2.0692 -1.7363
 6982SOL    HW220946   4.813   5.306   1.233  0.1079  0.2809  0.7342
 6983SOL     OW20947   1.698   5.320   4.775 -0.5684  0.6784  0.0285
 6983SOL    HW120948   1.629   5.255   4.779  0.1311 -0.0203  1.2953
 6983SOL    HW220949   1.710   5.349   4.866  0.8281  0.7262 -0.1371
 6984SOL     OW20950   4.660   4.553   5.767 -0.6096  0.1446 -0.5806
 6984SOL    HW120951   4.675   4.473   5.818  0.8171  0.6854 -0.1077
 6984SOL    HW220952   4.705   4.537   5.684 -0.0734  0.5616 -0.3738
 6985SOL     OW20953   5.333   4.786   3.838 -0.3702  0.2205 -0.4001
 6985SOL    HW120954   5.387   4.758   3.764 -0.5131  2.2482 -1.3644
 6985SOL    HW220955   5.327   4.710   3.894 -0.2355 -1.4103 -2.4766
 6986SOL     OW20956   4.901   2.640   5.791 -0.2227 -0.2264 -0.6626
 6986SOL    HW120957   4.858   2.722   5.815 -0.2554 -0.6558  0.8758
 6986SOL    HW220958   4.992   2.652   5.817 -0.5236 -1.1699  0.9794
 6987SOL     OW20959   2.076   3.678   5.522 -0.0925 -0.5630 -0.3742
 6987SOL    HW120960   2.030   3.612   5.574  0.9320 -0.6581  0.4486
 6987SOL    HW220961   2.125   3.729   5.587  0.9883 -0.4952 -1.2239
 6988SOL     OW20962   1.117   3.224   5.736  0.0535  0.2388 -0.0649
 6988SOL    HW120963   1.130   3.317   5.721  2.0440 -0.0913 -0.7520
 6988SOL    HW220964   1.192   3.197   5.790 -0.2272 -1.0287 -0.2722
 6989SOL     OW20965   5.849   4.479   2.861 -0.3774  0.2763 -0.1084
 6989SOL    HW120966   5.882   4.457   2.948  0.0137 -0.0934 -0.3480
 6989SOL    HW220967   5.927   4.489   2.806 -0.6460 -1.4869 -0.8888
 6990SOL     OW20968   1.102   5.611   0.482  0.2311 -0.0649 -0.0169
 6990SOL    HW120969   1.072   5.621   0.573 -1.5652  1.2389 -0.7126
 6990SOL    HW220970   1.185   5.660   0.479  0.1078  0.2208  0.8110
 6991SOL     OW20971   5.698   5.769   3.432 -0.3406  0.2260  0.1406
 6991SOL    HW120972   5.735   5.857   3.427 -0.7272  0.4313  0.8686
 6991SOL    HW220973   5.708   5.735   3.343  0.5057  0.7154  0.0329
 6992SOL     OW20974   4.866   5.331   3.523 -0.2898  0.2281 -0.2637
 6992SOL    HW120975   4.802   5.294   3.584  0.2846  1.4201  1.1163
 6992SOL    HW220976   4.856   5.425   3.533  1.4976  0.4317 -0.2065
 6993SOL     OW20977   0.891   0.203   2.056  0.6738 -0.4406  0.1721
 6993SOL    HW120978   0.954   0.193   2.127  0.1621  0.0709  0.7034
 6993SOL    HW220979   0.930   0.270   1.999  1.7413 -1.8013 -0.7891
 6994SOL     OW20980   0.255   2.039   4.196  0.0648 -0.1812 -0.3200
 6994SOL    HW120981   0.231   2.116   4.145 -0.7261 -0.3366 -0.1857
 6994SOL    HW220982   0.289   1.977   4.131  1.9674  0.7311 -0.2899
 6995SOL     OW20983   4.566   5.149   1.118  0.0425 -0.3065  0.3750
 6995SOL    HW120984   4.507   5.077   1.097 -0.8277  1.0267 -2.2593
 6995SOL    HW220985   4.521   5.197   1.188 -1.8872  0.3808 -1.2205
 6996SOL     OW20986   0.627   5.255   4.208 -0.3469 -0.0727  0.5591
 6996SOL    HW120987   0.579   5.333   4.234 -0.6100  1.0340 -2.7763
 6996SOL    HW220988   0.562   5.185   4.211 -1.6178  0.9378 -1.5430
 6997SOL     OW20989   4.900   3.414   5.257 -0.2477  0.3101  0.1787
 6997SOL    HW120990   4.825   3.380   5.208 -0.2012 -0.6609  0.7437
 6997SOL    HW220991   4.863   3.484   5.311 -0.6115  0.3343 -0.0981
 6998SOL     OW20992   3.741   4.508   0.317 -0.7113  0.0613  0.2606
 6998SOL    HW120993   3.788   4.426   0.332 -0.2192  0.6854  2.5981
 6998SOL    HW220994   3.809   4.573   0.300 -0.9592  0.3473  0.3413
 6999SOL     OW20995   0.746   0.061   0.738 -0.3546  0.7252 -0.4187
 6999SOL    HW120996   0.818   0.089   0.794 -0.7413  0.3236  0.2950
 6999SOL    HW220997   0.682   0.133   0.743  0.0018  1.0985 -1.0818
 7000SOL     OW20998   1.460   3.036   0.156  0.1751  0.1560 -0.8399
 7000SOL    HW120999   1.471   2.944   0.134  2.2053 -0.3239  1.6342
 7000SOL    HW221000   1.418   3.035   0.242  1.0018  1.5008 -0.3895
 7001SOL     OW21001   0.358   5.650   0.475  0.3580 -0.1282  0.1994
 7001SOL    HW121002   0.373   5.730   0.526 -1.3496 -0.4920  1.3534
 7001SOL    HW221003   0.373   5.579   0.538  0.6011 -0.6837 -0.4732
 7002SOL     OW21004   1.839   5.029   5.737 -0.0009  0.5612  0.4577
 7002SOL    HW121005   1.883   5.070   5.663  0.4562  0.9041  0.9190
 7002SOL    HW221006   1.761   5.083   5.751 -0.4768  0.0656 -0.2361
 7003SOL     OW21007   5.787   2.091   1.173  0.2209  0.1546  0.1378
 7003SOL    HW121008   5.830   2.174   1.154 -0.3804  0.2767 -0.7728
 7003SOL    HW221009   5.843   2.049   1.238 -0.6419  2.2351  2.3592
 7004SOL     OW21010   5.767   0.551   1.469 -0.4146 -0.1572 -0.2083
 7004SOL    HW121011   5.782   0.519   1.380 -1.1866 -2.4435  0.4031
 7004SOL    HW221012   5.686   0.508   1.497 -0.8610  1.4600  1.1999
 7005SOL     OW21013   4.905   1.664   0.094  0.1113  0.0897 -0.6363
 7005SOL    HW121014   4.828   1.720   0.091  0.3578  0.4409 -0.5012
 7005SOL    HW221015   4.971   1.711   0.043  0.3506 -0.0312 -0.4402
 7006SOL     OW21016   5.897   4.548   0.336  0.6580  0.2640  0.1675
 7006SOL    HW121017   5.978   4.587   0.368  0.2883  1.4714 -0.2817
 7006SOL    HW221018   5.843   4.623   0.310  0.6983 -0.5852 -2.7282
 7007SOL     OW21019   0.189   3.686   0.337  0.3831 -0.3209 -0.8007
 7007SOL    HW121020   0.211   3.764   0.388  2.9244 -0.1973 -1.9236
 7007SOL    HW221021   0.144   3.629   0.398 -2.7886  2.4389 -0.2398
 7008SOL     OW21022   5.759   1.945   1.900 -0.3213 -0.3508  0.4634
 7008SOL    HW121023   5.814   1.957   1.977  0.2149 -1.1046  0.2056
 7008SOL    HW221024   5.701   1.873   1.923 -0.4048 -0.3371  0.2945
 7009SOL     OW21025   5.581   1.648   1.508 -0.6862  0.3008 -0.0855
 7009SOL    HW121026   5.524   1.622   1.435 -1.0361 -0.9934  0.6187
 7009SOL    HW221027   5.558   1.740   1.525 -1.1512  0.3849 -1.0862
 7010SOL     OW21028   2.790   3.616   0.324  0.0262  0.3676 -0.3105
 7010SOL    HW121029   2.782   3.526   0.292  0.3920  0.3822 -0.4452
 7010SOL    HW221030   2.702   3.639   0.353  0.2745 -0.6284  1.3315
 7011SOL     OW21031   4.149   4.259   0.956 -0.3453 -0.0304 -0.2569
 7011SOL    HW121032   4.145   4.169   0.986 -1.0757  1.0145  3.2998
 7011SOL    HW221033   4.057   4.285   0.946 -0.3502  1.2082  2.2233
 7012SOL     OW21034   5.662   0.016   2.686 -0.2454 -0.4339 -0.0467
 7012SOL    HW121035   5.589   0.078   2.691 -1.3786 -1.7290  0.2285
 7012SOL    HW221036   5.657  -0.019   2.597  0.2534 -0.2788 -0.1337
 7013SOL     OW21037   1.251   1.958   0.821  0.5415  0.5311 -0.2133
 7013SOL    HW121038   1.215   1.965   0.909 -0.3443  2.6697 -0.6888
 7013SOL    HW221039   1.177   1.977   0.763  1.4612  0.7416 -1.3597
 7014SOL     OW21040   0.292   0.678   2.258 -0.2573 -0.4844  0.6212
 7014SOL    HW121041   0.253   0.684   2.346 -0.0406 -1.4645  0.7948
 7014SOL    HW221042   0.291   0.585   2.238 -1.3198 -0.1836 -0.8968
 7015SOL     OW21043   4.150   4.969   5.038  0.1683 -0.5481  0.2596
 7015SOL    HW121044   4.234   4.941   5.003 -0.3068 -1.2091 -0.3884
 7015SOL    HW221045   4.085   4.920   4.987 -0.5836 -0.6949  1.3176
 7016SOL     OW21046   1.477   0.009   0.200 -0.0280 -0.2704  0.2579
 7016SOL    HW121047   1.397   0.059   0.182  0.4966  0.6589  0.4169
 7016SOL    HW221048   1.530   0.068   0.253  1.9417  0.2801 -2.1334
 7017SOL     OW21049   0.440   4.934   4.930  0.5672  0.5210 -0.3761
 7017SOL    HW121050   0.518   4.990   4.931  0.3761  0.8232 -1.4461
 7017SOL    HW221051   0.412   4.931   5.022  0.8915  1.7420 -0.2141
 7018SOL     OW21052   5.265   4.518   3.644 -0.1029  0.4130 -0.4211
 7018SOL    HW121053   5.251   4.522   3.739 -1.8468  0.8600 -0.6662
 7018SOL    HW221054   5.316   4.438   3.631 -1.2541 -0.5565  0.7482
 7019SOL     OW21055   5.072   5.905   4.653 -0.4436 -0.1469 -0.3779
 7019SOL    HW121056   5.143   5.951   4.609 -2.0298  0.9006 -1.9906
 7019SOL    HW221057   5.096   5.813   4.649  0.4579  0.1233 -1.5569
 7020SOL     OW21058   3.487   5.138   0.733  0.6078  0.2587  0.5381
 7020SOL    HW121059   3.504   5.053   0.772 -0.5487  0.1033  0.7441
 7020SOL    HW221060   3.392   5.149   0.739  0.4817  0.6097 -1.4572
 7021SOL     OW21061   0.024   1.448   2.608  0.0698 -0.5703  0.1046
 7021SOL    HW121062   0.092   1.486   2.552 -3.0895  1.8909 -2.5081
 7021SOL    HW221063   0.001   1.365   2.566  0.5781 -0.7850  0.2475
 7022SOL     OW21064   0.911   0.233   0.957 -0.9488 -0.5425  0.1369
 7022SOL    HW121065   0.957   0.186   0.888  0.9023  0.1171  0.8340
 7022SOL    HW221066   0.975   0.298   0.987 -1.7530 -0.6869  2.3263
 7023SOL     OW21067   0.210   5.611   4.973 -0.1432 -0.3431 -0.5613
 7023SOL    HW121068   0.115   5.618   4.975 -0.2178 -1.4297  0.0105
 7023SOL    HW221069   0.228   5.518   4.959  0.8353 -0.2891  0.2144
 7024SOL     OW21070   3.100   0.431   3.510  0.2920  0.6520 -0.3756
 7024SOL    HW121071   3.043   0.507   3.499 -1.3446 -0.7084 -2.2002
 7024SOL    HW221072   3.184   0.459   3.474  0.3806  2.2114  0.9204
 7025SOL     OW21073   3.419   4.957   3.451  0.5295 -0.1066  0.3082
 7025SOL    HW121074   3.390   4.868   3.472 -2.1207  0.3680 -0.8282
 7025SOL    HW221075   3.422   5.002   3.536  1.0132 -1.0261  0.7908
 7026SOL     OW21076   4.731   4.173   0.219 -0.0613  0.5249 -0.6295
 7026SOL    HW121077   4.675   4.206   0.289  0.7699  0.7533 -0.0646
 7026SOL    HW221078   4.712   4.079   0.215 -0.3191  0.5621 -0.2865
 7027SOL     OW21079   4.134   4.903  -0.013  0.1704  0.2171 -0.1472
 7027SOL    HW121080   4.190   4.888   0.063  2.5824  0.4816 -1.7527
 7027SOL    HW221081   4.085   4.821  -0.022  0.9916 -0.4094  0.7847
 7028SOL     OW21082   1.418   5.427   3.513 -0.0852 -0.5970  0.1487
 7028SOL    HW121083   1.393   5.496   3.574  0.4011  0.0222 -0.3371
 7028SOL    HW221084   1.339   5.375   3.502 -0.8528  0.6578 -0.4886
 7029SOL     OW21085   0.036   0.356   1.220 -0.0557  0.3097 -0.0763
 7029SOL    HW121086   0.056   0.417   1.291  1.1480 -0.7089  0.4807
 7029SOL    HW221087   0.008   0.276   1.263  0.2604 -0.1809 -0.7575
   5.99683   5.99683   5.99683
