water box
 8916
    1SOL     OW    1   4.451   2.229   0.851 -0.3612 -0.1085 -0.0876
    1SOL    HW1    2   4.452   2.233   0.756  1.0971  2.2031 -0.0577
    1SOL    HW2    3   4.359   2.243   0.875 -1.2174 -3.1348 -1.0875
    2SOL     OW    4   0.324   3.350   3.068  0.1578  1.0283  0.6336
    2SOL    HW1    5   0.342   3.260   3.095 -0.2611  0.8525  0.3344
    2SOL    HW2    6   0.410   3.392   3.063  0.4211  0.4229 -0.0016
    3SOL     OW    7   2.139   0.330   3.925 -0.0156 -0.4550 -0.0833
    3SOL    HW1    8   2.121   0.394   3.993 -1.1571 -1.7477  0.8916
    3SOL    HW2    9   2.229   0.349   3.897 -0.3190  1.5187  0.1773
    4SOL     OW   10   2.777   3.917   0.023 -0.3538 -0.5710  0.3290
    4SOL    HW1   11   2.788   3.842   0.081 -2.3708 -0.1312  1.3759
    4SOL    HW2   12   2.688   3.907  -0.012  0.0710  0.2877 -1.0979
    5SOL     OW   13   0.848   0.407   2.673  0.3997 -0.4997  0.3715
    5SOL    HW1   14   0.890   0.390   2.757  2.1843 -0.1677 -0.3905
    5SOL    HW2   15   0.858   0.325   2.624 -0.3498 -0.5937  0.3685
    6SOL     OW   16   2.522   3.866   0.280  0.0466  0.3324 -0.4923
    6SOL    HW1   17   2.569   3.825   0.352  1.7431  1.1428 -1.0782
    6SOL    HW2   18   2.455   3.802   0.255  0.8234 -0.8674  0.3790
    7SOL     OW   19   0.334   0.026   3.237 -0.0491 -0.1739  0.0139
    7SOL    HW1   20   0.252  -0.020   3.254 -0.2386 -0.5434 -1.6658
    7SOL    HW2   21   0.393  -0.004   3.306 -0.9104 -0.9973  0.4156
    8SOL     OW   22   0.544   0.671   0.521  0.1953  0.1346  0.0535
    8SOL    HW1   23   0.611   0.707   0.579 -0.4344 -1.0261  1.5705
    8SOL    HW2   24   0.495   0.610   0.576 -1.5177  0.2499 -1.2663
    9SOL     OW   25   0.526   1.386   1.976 -0.7690  0.3298  0.1517
    9SOL    HW1   26   0.610   1.347   2.002 -0.1686  1.2178 -0.4145
    9SOL    HW2   27   0.543   1.480   1.972 -1.7987  0.5247  0.0354
   10SOL     OW   28   2.741   3.865   3.728  0.5334 -0.4914  0.9350
   10SOL    HW1   29   2.675   3.797   3.727  1.2109 -1.1632 -0.3612
   10SOL    HW2   30   2.693   3.947   3.717 -0.1785 -0.8513  1.3450
   11SOL     OW   31   2.451   0.469   3.312  0.7410  0.1089  0.3589
   11SOL    HW1   32   2.538   0.492   3.278 -0.4038  0.4440 -2.6781
   11SOL    HW2   33   2.406   0.553   3.320 -0.1958 -0.2491 -0.9097
   12SOL     OW   34   2.438   2.953   1.246  0.1029  0.5364  0.2799
   12SOL    HW1   35   2.378   3.014   1.287 -1.5762 -0.2851 -0.8284
   12SOL    HW2   36   2.415   2.956   1.153 -1.2226 -2.9047  0.3489
   13SOL     OW   37   1.280   1.045   2.352 -0.1422 -0.0752 -0.5665
   13SOL    HW1   38   1.285   1.034   2.447  0.7312  2.8869 -0.1975
   13SOL    HW2   39   1.187   1.055   2.334 -0.4773 -2.2384 -0.3004
   14SOL     OW   40   0.024   2.784   0.318 -0.2724 -0.6841  0.3385
   14SOL    HW1   41  -0.015   2.821   0.397 -2.0569  0.8615 -1.1795
   14SOL    HW2   42   0.109   2.827   0.311 -1.1319  1.0588  0.1476
   15SOL     OW   43   0.083   0.094   2.320 -0.4249 -0.4451 -0.9431
   15SOL    HW1   44   0.028   0.142   2.258  0.5092 -0.7281 -2.0088
   15SOL    HW2   45   0.145   0.159   2.352 -0.8804 -0.3087 -0.3146
   16SOL     OW   46   1.579   1.202   2.837 -0.3322  0.1973 -0.2816
   16SOL    HW1   47   1.509   1.138   2.852 -0.7781  0.9447  0.9808
   16SOL    HW2   48   1.658   1.149   2.826 -0.6327 -0.5914  1.1114
   17SOL     OW   49   4.399   3.892   4.080 -0.1678  0.4217 -0.2324
   17SOL    HW1   50   4.313   3.904   4.040 -1.0247 -0.7002  1.1705
   17SOL    HW2   51   4.433   3.980   4.091 -2.3867  1.1359  1.7527
   18SOL     OW   52   2.181   0.036   1.258 -0.6629  0.3301 -0.5168
   18SOL    HW1   53   2.234  -0.038   1.231 -0.9980 -0.2480  0.3709
   18SOL    HW2   54   2.091   0.005   1.252 -0.7855  0.4954  0.3317
   19SOL     OW   55   3.729   0.441   1.104 -0.4047 -0.6233  0.4107
   19SOL    HW1   56   3.665   0.380   1.067 -1.0195  1.5009 -2.2916
   19SOL    HW2   57   3.811   0.390   1.107 -0.9950 -1.7595 -1.2598
   20SOL     OW   58   4.214   2.954   1.870 -0.5988 -0.7871 -0.8638
   20SOL    HW1   59   4.163   2.985   1.795 -0.5326 -0.2240 -0.6811
   20SOL    HW2   60   4.262   2.879   1.836  0.9700  0.6298 -1.9825
   21SOL     OW   61   2.013   1.207   4.118 -0.3085  0.0229  0.1602
   21SOL    HW1   62   2.052   1.191   4.204  0.8962 -0.9108 -0.5273
   21SOL    HW2   63   1.998   1.301   4.116  0.7284  0.2335  0.9725
   22SOL     OW   64   1.573   0.635   2.196  0.1554  0.0940  0.2196
   22SOL    HW1   65   1.638   0.699   2.167  0.5999 -0.3388  0.2473
   22SOL    HW2   66   1.617   0.586   2.265  0.0462 -0.6671 -0.2374
   23SOL     OW   67   1.500   3.623   0.734  0.2145  0.2262  0.3781
   23SOL    HW1   68   1.531   3.679   0.806 -1.5756 -0.2386  1.5931
   23SOL    HW2   69   1.405   3.635   0.735  0.1469  0.2723 -2.0156
   24SOL     OW   70   2.551   1.755   2.107 -0.6342  0.2743 -0.3922
   24SOL    HW1   71   2.539   1.732   2.199 -2.4084 -0.7394 -0.8240
   24SOL    HW2   72   2.600   1.837   2.109 -0.6453  0.2784  1.4570
   25SOL     OW   73   4.014   2.175   4.280  0.1144 -0.4310 -0.2542
   25SOL    HW1   74   3.950   2.241   4.254  0.4439 -0.7479 -2.0034
   25SOL    HW2   75   4.034   2.128   4.199 -0.0660 -2.6589  0.9249
   26SOL     OW   76   3.118   0.286   1.399 -0.2200  0.5511  0.2468
   26SOL    HW1   77   3.207   0.318   1.409  0.1531  1.0759 -3.3987
   26SOL    HW2   78   3.124   0.191   1.409  0.7427  0.6061  0.2041
   27SOL     OW   79   1.466   4.364   3.859 -0.3153  0.0169  0.3176
   27SOL    HW1   80   1.540   4.317   3.896  0.2984 -0.3840 -1.3669
   27SOL    HW2   81   1.413   4.388   3.936  1.7287  0.6971  1.6059
   28SOL     OW   82   1.002   2.496   4.451 -0.3570  0.1345 -0.0763
   28SOL    HW1   83   1.028   2.421   4.505  1.3252 -0.0013 -1.0235
   28SOL    HW2   84   0.940   2.458   4.388 -0.8419 -0.0938  0.5262
   29SOL     OW   85   0.485   4.041   4.413  0.4386  0.0094  0.2011
   29SOL    HW1   86   0.458   3.985   4.485 -2.7900  1.9887  0.7296
   29SOL    HW2   87   0.453   3.995   4.334 -0.0686 -0.0512  0.4353
   30SOL     OW   88   3.072   4.020   0.231 -0.6466 -0.1822  0.4845
   30SOL    HW1   89   3.082   4.039   0.137 -0.6831 -1.1592  0.2666
   30SOL    HW2   90   3.157   4.041   0.269 -0.2187 -0.9528  0.0022
   31SOL     OW   91   0.232   0.990   3.821  0.7134 -0.2872 -0.3683
   31SOL    HW1   92   0.258   0.970   3.911 -0.3922  0.3725  0.1169
   31SOL    HW2   93   0.301   1.048   3.788  0.0106  1.2809  0.8247
   32SOL     OW   94   4.455   4.021   3.328 -0.2692 -0.2981  0.5799
   32SOL    HW1   95   4.534   4.062   3.363 -0.1252 -0.0812  0.0250
   32SOL    HW2   96   4.463   3.928   3.349  0.6693 -0.4608 -0.4088
   33SOL     OW   97   1.031   2.841   3.485  0.4116  0.3140 -0.0110
   33SOL    HW1   98   1.034   2.816   3.392  5.1027  0.0122 -0.0067
   33SOL    HW2   99   1.053   2.934   3.485  1.4092  0.0995  0.7775
   34SOL     OW  100   1.592   3.470   1.053  0.0914  0.3363  0.2404
   34SOL    HW1  101   1.498   3.456   1.053 -0.3442  2.8467  0.9453
   34SOL    HW2  102   1.629   3.383   1.038 -2.3061 -0.7633  0.2887
   35SOL     OW  103   1.195   4.429   2.191  0.0204  0.3326  0.1534
   35SOL    HW1  104   1.275   4.389   2.224 -0.2351  0.6728  1.2376
   35SOL    HW2  105   1.214   4.450   2.100  0.4914 -1.3463 -0.1592
   36SOL     OW  106   3.846   0.930   0.993  0.4127 -0.3765 -0.2989
   36SOL    HW1  107   3.836   1.021   1.020 -1.2087 -0.4141 -0.7010
   36SOL    HW2  108   3.887   0.935   0.906  0.2183 -0.0294 -0.3714
   37SOL     OW  109   2.030   3.194   2.572 -0.3475 -0.4362  0.1158
   37SOL    HW1  110   2.070   3.272   2.608  1.7902 -0.6276 -1.6556
   37SOL    HW2  111   1.995   3.147   2.649  1.6508  0.4145  1.6200
   38SOL     OW  112   3.696   1.132   2.656  0.1854  0.3634 -0.5342
   38SOL    HW1  113   3.777   1.181   2.640 -0.1061  0.9982 -0.1061
   38SOL    HW2  114   3.703   1.104   2.747  0.2339 -0.1883 -0.7017
   39SOL     OW  115   3.028   2.746   0.088  0.4633  0.0095  0.1361
   39SOL    HW1  116   3.118   2.735   0.057  0.6679 -1.2616  1.1067
   39SOL    HW2  117   3.032   2.819   0.150  0.7272  0.2370 -0.1455
   40SOL     OW  118  -0.027   1.446   1.149  0.5512 -0.3878  0.2467
   40SOL    HW1  119  -0.015   1.414   1.060  0.3203 -0.5020  0.2539
   40SOL    HW2  120   0.059   1.435   1.190  0.8481  0.3358 -0.1640
   41SOL     OW  121   2.642   3.858   0.566 -0.1604 -0.2068  0.2376
   41SOL    HW1  122   2.583   3.923   0.603 -1.2117 -0.7589 -0.4077
   41SOL    HW2  123   2.705   3.908   0.514 -1.1606  0.2976 -0.5270
   42SOL     OW  124   4.029   1.266   4.243 -0.4075 -0.2590  0.3887
   42SOL    HW1  125   3.940   1.235   4.224 -1.3232  2.5113 -0.3620
   42SOL    HW2  126   4.072   1.270   4.157 -0.0740 -0.1120  0.5604
   43SOL     OW  127   3.226   3.239   1.947 -0.2419 -0.3896 -0.1098
   43SOL    HW1  128   3.305   3.185   1.943 -0.5909 -0.8614 -1.0038
   43SOL    HW2  129   3.224   3.273   2.036  1.2917  0.1179 -0.2539
   44SOL     OW  130   1.032   1.402   2.590  0.4799  0.5546 -0.0919
   44SOL    HW1  131   1.039   1.497   2.596  0.2067  0.5238  0.7959
   44SOL    HW2  132   0.942   1.387   2.562  0.0001  0.5124  1.4115
   45SOL     OW  133   1.437   4.392   0.261 -0.8274  0.1359 -0.1401
   45SOL    HW1  134   1.466   4.479   0.235 -0.3660  0.0410  0.0418
   45SOL    HW2  135   1.355   4.406   0.309  0.8018  0.7986  2.6468
   46SOL     OW  136   2.244   3.865   0.399  0.2425 -0.3581  0.6397
   46SOL    HW1  137   2.336   3.890   0.391  0.1513 -0.2789 -0.2546
   46SOL    HW2  138   2.196   3.940   0.364 -0.1686 -0.4326  1.0303
   47SOL     OW  139   0.455   2.397   0.928  0.6179  0.4926 -0.3257
   47SOL    HW1  140   0.471   2.377   1.020 -0.3718 -0.1100 -0.2686
   47SOL    HW2  141   0.360   2.402   0.921  0.5851 -1.1218 -1.6475
   48SOL     OW  142   0.676   0.252   1.080  0.3594 -0.2017  0.2616
   48SOL    HW1  143   0.675   0.281   1.171 -0.5685 -0.4787  0.3407
   48SOL    HW2  144   0.675   0.157   1.084  2.0251 -0.2702 -0.0278
   49SOL     OW  145   1.951   2.756   0.391 -0.3115 -0.4186  0.8674
   49SOL    HW1  146   1.965   2.681   0.449  0.2864  1.0543  2.7498
   49SOL    HW2  147   2.030   2.808   0.400 -0.6446  0.3734 -0.5251
   50SOL     OW  148   1.131   4.514   3.414 -0.2196 -0.2593 -0.3595
   50SOL    HW1  149   1.108   4.464   3.492 -3.0761 -0.7749 -1.3901
   50SOL    HW2  150   1.207   4.468   3.378 -0.9155 -2.0683  0.3429
   51SOL     OW  151   0.059   4.420   3.276  0.3857  0.0118  0.1391
   51SOL    HW1  152  -0.016   4.363   3.262  0.8896 -1.3186  2.3064
   51SOL    HW2  153   0.022   4.501   3.309 -0.2501  0.4702 -1.6166
   52SOL     OW  154   1.754   0.874   0.089  0.2509  0.2640 -0.2218
   52SOL    HW1  155   1.846   0.870   0.118  0.0409 -1.5158  0.3169
   52SOL    HW2  156   1.744   0.798   0.032 -1.2375 -0.4148  0.8647
   53SOL     OW  157   0.427   3.839   0.443  0.3074  0.2612  0.3638
   53SOL    HW1  158   0.499   3.897   0.419  0.7050 -1.0086 -1.6895
   53SOL    HW2  159   0.466   3.751   0.444 -0.8418 -0.2674  0.8887
   54SOL     OW  160   1.849   3.659   4.307  0.5738 -0.1971  0.0142
   54SOL    HW1  161   1.810   3.573   4.321  1.0087 -0.5387 -0.8530
   54SOL    HW2  162   1.937   3.641   4.276  0.7112  0.5675 -0.0557
   55SOL     OW  163   4.088   3.419   4.360  0.0576 -0.1100 -0.4312
   55SOL    HW1  164   4.046   3.487   4.412  2.8747  0.9611  0.6304
   55SOL    HW2  165   4.069   3.443   4.269  0.2547  1.6428 -0.0469
   56SOL     OW  166   2.537   2.023   0.625  0.3492  0.1635  0.1600
   56SOL    HW1  167   2.491   2.007   0.707 -0.3740  0.1237 -0.2429
   56SOL    HW2  168   2.534   2.118   0.614 -0.8564  0.0547 -0.5468
   57SOL     OW  169   0.735   1.618   1.670 -0.7030  0.1618 -0.1187
   57SOL    HW1  170   0.758   1.525   1.664 -1.1529  0.0246  0.2637
   57SOL    HW2  171   0.640   1.618   1.684 -0.3819  0.5879  2.5120
   58SOL     OW  172   2.559   4.153   1.593 -0.0994  0.1004  0.6509
   58SOL    HW1  173   2.508   4.139   1.513  0.4488 -0.5559  0.4091
   58SOL    HW2  174   2.609   4.233   1.575 -2.1733  1.6797  1.4907
   59SOL     OW  175   1.475   4.234   1.225 -0.9502  0.0745  0.5166
   59SOL    HW1  176   1.544   4.191   1.275 -0.8361 -0.9284 -0.4770
   59SOL    HW2  177   1.434   4.294   1.287  1.4139  1.4053  0.8914
   60SOL     OW  178   1.828   0.575   1.827  0.3832 -0.2375  0.4186
   60SOL    HW1  179   1.815   0.482   1.844  0.9050 -0.2486  0.7663
   60SOL    HW2  180   1.910   0.579   1.778  0.2563  0.0222  0.2265
   61SOL     OW  181   3.823   3.072   1.953  0.5066  0.0352 -0.1937
   61SOL    HW1  182   3.766   3.142   1.985 -0.7792 -1.1010  0.1285
   61SOL    HW2  183   3.810   3.072   1.858  1.8419  1.3179 -0.4066
   62SOL     OW  184   3.833   1.910   2.581 -0.7722 -0.4329 -0.5800
   62SOL    HW1  185   3.763   1.918   2.646  0.5709 -2.4411  1.2664
   62SOL    HW2  186   3.791   1.867   2.506 -1.6327 -1.2584  0.3464
   63SOL     OW  187   3.685   0.282   2.244 -0.4740 -0.1518  0.1715
   63SOL    HW1  188   3.652   0.327   2.322  2.0086 -2.5664  2.8464
   63SOL    HW2  189   3.613   0.226   2.217 -0.8285 -0.6069  1.9006
   64SOL     OW  190   3.023   2.931   0.283 -0.2215  0.2916  0.0485
   64SOL    HW1  191   2.985   2.911   0.368 -0.7383  2.0155  0.2579
   64SOL    HW2  192   3.109   2.969   0.304 -1.0179  2.2590 -0.0637
   65SOL     OW  193   1.255   3.941   3.884 -0.2313 -0.4112  0.0557
   65SOL    HW1  194   1.315   4.006   3.848  1.7243 -0.4516  2.9381
   65SOL    HW2  195   1.172   3.989   3.895  1.1224  1.7196  2.0187
   66SOL     OW  196   3.777   0.047   1.170 -0.0744  0.5030 -0.3097
   66SOL    HW1  197   3.822   0.131   1.167 -0.6769  0.8036 -1.0073
   66SOL    HW2  198   3.823  -0.007   1.106  0.5251  0.1785  0.3734
   67SOL     OW  199   1.229   3.162   0.853  0.2764 -0.0215 -0.5127
   67SOL    HW1  200   1.297   3.095   0.846  1.1100  0.7623 -0.1098
   67SOL    HW2  201   1.257   3.231   0.793 -0.3871  0.1341 -0.6528
   68SOL     OW  202   0.642   2.595   0.875 -0.0423 -0.3756 -0.3088
   68SOL    HW1  203   0.664   2.608   0.967 -0.5953  0.0967 -0.2316
   68SOL    HW2  204   0.577   2.525   0.875 -1.9066  1.2694 -0.0673
   69SOL     OW  205   0.122   2.592   1.537 -0.6055  0.4900 -0.0347
   69SOL    HW1  206   0.208   2.616   1.572  0.6115 -3.0039 -0.2310
   69SOL    HW2  207   0.129   2.609   1.443  0.1718 -0.4425 -0.1587
   70SOL     OW  208   0.664   4.369   2.958 -0.3496 -0.1461  0.2991
   70SOL    HW1  209   0.579   4.404   2.931  1.0583  1.2455 -2.8225
   70SOL    HW2  210   0.725   4.441   2.942  1.9595 -2.3335 -1.4071
   71SOL     OW  211   0.922   0.415   4.352  0.1507  0.2081 -0.3157
   71SOL    HW1  212   0.946   0.506   4.334  0.8741  0.1978  0.5534
   71SOL    HW2  213   1.000   0.376   4.392  0.5267 -1.3234 -2.3502
   72SOL     OW  214   1.524   2.828   2.685  0.0067 -0.0140 -0.4181
   72SOL    HW1  215   1.433   2.803   2.673 -0.0702 -0.1134  0.3295
   72SOL    HW2  216   1.574   2.764   2.635 -0.3181 -0.1519 -0.5677
   73SOL     OW  217   3.173   0.286   1.856  0.0487 -0.0352  0.1694
   73SOL    HW1  218   3.235   0.349   1.893 -0.8709  2.4905 -2.1939
   73SOL    HW2  219   3.105   0.277   1.922  0.7955  0.5655  1.0400
   74SOL     OW  220   3.604   3.301   4.120  0.3269  0.1382  0.0466
   74SOL    HW1  221   3.631   3.382   4.076 -1.8176  0.7166 -0.3342
   74SOL    HW2  222   3.666   3.235   4.089  0.7350  1.1757 -1.4665
   75SOL     OW  223   1.937   2.333   3.994  0.2411 -0.1750  0.1197
   75SOL    HW1  224   1.982   2.403   3.947  1.5532 -0.0455  1.5075
   75SOL    HW2  225   1.857   2.374   4.027 -1.4647 -0.6261 -3.0810
   76SOL     OW  226   4.219   2.284   0.962  0.5209  0.8954 -0.0616
   76SOL    HW1  227   4.152   2.217   0.945  0.5659  0.4431  1.4226
   76SOL    HW2  228   4.220   2.293   1.057  4.1784 -0.8215  0.2297
   77SOL     OW  229   0.115   0.491   2.689 -0.2282  0.5070  0.0128
   77SOL    HW1  230   0.201   0.490   2.647 -0.0408  1.1784  0.3708
   77SOL    HW2  231   0.124   0.430   2.763  0.1177  1.0110  0.3908
   78SOL     OW  232   3.437   1.534   1.474  0.0849 -0.8798 -0.0062
   78SOL    HW1  233   3.427   1.584   1.393 -1.5041 -1.3037 -0.0889
   78SOL    HW2  234   3.506   1.470   1.454 -0.1459 -0.8409 -0.9465
   79SOL     OW  235   0.489   1.801   0.437  0.9039  0.5400 -0.7473
   79SOL    HW1  236   0.538   1.845   0.506  0.5056 -1.4034  0.8845
   79SOL    HW2  237   0.553   1.747   0.391  0.7511 -0.2411 -0.0870
   80SOL     OW  238   1.164   0.443   0.627 -0.2635 -0.4105  0.3567
   80SOL    HW1  239   1.090   0.427   0.567  0.7198  0.6038 -1.2034
   80SOL    HW2  240   1.241   0.415   0.577  0.8341  2.6000  0.1494
   81SOL     OW  241   1.826   1.409   0.995 -0.5346  0.3403  0.0148
   81SOL    HW1  242   1.816   1.427   0.902  0.2912  1.7579  0.1677
   81SOL    HW2  243   1.907   1.454   1.020 -0.3911 -0.5609  1.2816
   82SOL     OW  244   1.998   2.032   1.140  0.4743 -0.1719  0.5060
   82SOL    HW1  245   1.959   1.952   1.106 -0.3067  0.7590 -0.8786
   82SOL    HW2  246   2.043   2.005   1.220 -1.5573 -1.6059  1.2350
   83SOL     OW  247   0.078   4.080   1.111  0.1092  0.1373  0.0126
   83SOL    HW1  248   0.108   3.990   1.126  1.4140  0.7154  1.1424
   83SOL    HW2  249   0.128   4.110   1.036  1.4835  0.6759  1.1046
   84SOL     OW  250   3.619   2.101   3.076 -0.4189 -0.3485 -0.0595
   84SOL    HW1  251   3.544   2.042   3.081 -1.2676  0.7298  0.5760
   84SOL    HW2  252   3.630   2.133   3.166  0.3110  0.0959 -0.2999
   85SOL     OW  253   4.178   1.287   4.472 -0.3189 -0.5248  0.4219
   85SOL    HW1  254   4.151   1.275   4.381 -0.1693 -0.2651  0.3426
   85SOL    HW2  255   4.114   1.237   4.523  1.2146 -3.0692  0.0102
   86SOL     OW  256   1.815   2.666   0.885  0.1996  0.3178 -0.1852
   86SOL    HW1  257   1.869   2.620   0.950  0.4215 -0.3013 -0.7937
   86SOL    HW2  258   1.782   2.596   0.829 -0.1328  0.8341 -0.6336
   87SOL     OW  259   1.885   1.714   3.565 -0.0266  0.3092  0.2641
   87SOL    HW1  260   1.795   1.744   3.558  0.7364  3.0281  1.0552
   87SOL    HW2  261   1.907   1.727   3.658  1.4773  0.6804 -0.1257
   88SOL     OW  262   2.348   4.498   2.598 -0.2554  0.2783  0.2989
   88SOL    HW1  263   2.413   4.540   2.541  1.0505 -1.0171  0.7629
   88SOL    HW2  264   2.364   4.404   2.587 -2.4723 -0.1025 -0.0112
   89SOL     OW  265   3.675   0.996   0.529  0.1384 -0.0532  0.5091
   89SOL    HW1  266   3.627   1.003   0.611 -0.0950  1.4838  0.2770
   89SOL    HW2  267   3.767   1.006   0.554  0.1793 -0.8290  0.7042
   90SOL     OW  268   1.582   3.875   3.183 -0.5469  0.0236  0.5130
   90SOL    HW1  269   1.558   3.872   3.091  1.6005 -2.4022 -0.0804
   90SOL    HW2  270   1.500   3.862   3.230 -1.3213 -1.5174 -1.1562
   91SOL     OW  271   1.540   3.455   3.287  0.0160  0.8050  0.3596
   91SOL    HW1  272   1.520   3.401   3.363 -1.7304  0.7276 -0.1185
   91SOL    HW2  273   1.611   3.513   3.317 -1.3440  1.5320  2.3957
   92SOL     OW  274   2.119   3.733   3.954 -0.0908 -0.3625  0.2929
   92SOL    HW1  275   2.209   3.713   3.927  0.2900  2.1975 -0.7070
   92SOL    HW2  276   2.066   3.713   3.877 -0.2763 -1.1074  0.6081
   93SOL     OW  277   0.942   2.624   1.670  0.2776  0.3321 -0.1954
   93SOL    HW1  278   0.861   2.599   1.626  0.2731  1.4253 -0.8290
   93SOL    HW2  279   0.927   2.601   1.762 -0.3648 -0.3831 -0.4717
   94SOL     OW  280   3.647   2.558   2.808 -0.3565 -0.1410 -0.2281
   94SOL    HW1  281   3.655   2.641   2.760 -0.6371 -0.7346 -1.3584
   94SOL    HW2  282   3.733   2.543   2.847  0.8513 -1.0205 -2.9669
   95SOL     OW  283   1.073   0.550   3.901  0.4800  0.1137 -0.0966
   95SOL    HW1  284   1.167   0.563   3.888  1.0558  0.5972  3.3479
   95SOL    HW2  285   1.061   0.455   3.901  0.9395  0.0520 -0.7042
   96SOL     OW  286   1.436   2.644   3.776  0.1923 -0.8065  0.8289
   96SOL    HW1  287   1.445   2.635   3.870 -0.6757 -1.0722  0.8884
   96SOL    HW2  288   1.345   2.621   3.757 -0.2351  1.2486  0.1747
   97SOL     OW  289   2.158   1.600   0.414  0.3261  0.2414  0.0022
   97SOL    HW1  290   2.119   1.515   0.435  0.3506  0.2745  0.1804
   97SOL    HW2  291   2.112   1.628   0.335  0.9144 -0.3303 -0.5469
   98SOL     OW  292   0.777   0.384   1.752  0.8922 -0.4747 -0.5421
   98SOL    HW1  293   0.784   0.398   1.658  0.8216 -0.2276 -0.5101
   98SOL    HW2  294   0.813   0.464   1.791  2.5258 -1.2465 -0.3501
   99SOL     OW  295   1.102   4.359   1.642  0.4744 -0.8550  0.6718
   99SOL    HW1  296   1.037   4.429   1.642 -0.0781 -1.3327 -0.7071
   99SOL    HW2  297   1.162   4.382   1.712  0.7968  1.4688 -0.2731
  100SOL     OW  298   0.743   2.807   1.448 -0.4557 -0.1084 -0.3304
  100SOL    HW1  299   0.709   2.870   1.385  1.1252 -1.5865 -2.8244
  100SOL    HW2  300   0.835   2.831   1.459  0.3439 -2.2435 -1.8078
  101SOL     OW  301   4.150   2.621   0.103  0.3878  0.5167  0.1870
  101SOL    HW1  302   4.165   2.575   0.021  1.4814  0.1572  0.5683
  101SOL    HW2  303   4.212   2.694   0.102  0.3294  0.5776  0.6402
  102SOL     OW  304   0.241   1.452   4.114  0.7804 -0.0561  0.4162
  102SOL    HW1  305   0.192   1.503   4.179  0.8451  0.5679 -0.0172
  102SOL    HW2  306   0.181   1.383   4.088  0.0604  0.7767 -0.2091
  103SOL     OW  307   0.440   1.730   1.020  0.3763 -0.2838 -0.2830
  103SOL    HW1  308   0.373   1.797   1.017  0.9884  0.2999 -2.1862
  103SOL    HW2  309   0.467   1.727   1.112 -0.9702  0.7280  0.1713
  104SOL     OW  310   4.257   1.571   3.516 -0.0787  0.3274  0.6525
  104SOL    HW1  311   4.286   1.639   3.577  0.2605  1.5077 -0.7777
  104SOL    HW2  312   4.292   1.597   3.432  0.1108 -1.6729  0.0438
  105SOL     OW  313   3.220   0.470   3.772 -0.2147 -0.2805  0.3518
  105SOL    HW1  314   3.141   0.525   3.780 -0.6068 -0.7237 -0.3890
  105SOL    HW2  315   3.292   0.530   3.791 -0.4618  1.1176 -2.4738
  106SOL     OW  316   0.499   3.868   1.085  0.0754  0.1137 -0.0170
  106SOL    HW1  317   0.514   3.777   1.058  0.9052  0.3568 -0.3830
  106SOL    HW2  318   0.513   3.867   1.180  1.4310  0.1281 -0.2080
  107SOL     OW  319   4.034   0.569   2.918 -0.8472 -0.1353 -0.0343
  107SOL    HW1  320   4.023   0.664   2.926  0.6599  0.0714 -0.1740
  107SOL    HW2  321   4.004   0.549   2.830  3.2561  1.0101 -1.9053
  108SOL     OW  322   3.007   2.896   1.586 -0.2199  0.0882  0.1432
  108SOL    HW1  323   2.930   2.850   1.553 -1.0041  0.9640  0.7070
  108SOL    HW2  324   2.990   2.988   1.568  0.2728  0.3870  1.1136
  109SOL     OW  325   2.671   3.346   3.599 -0.2430  0.5772  0.2829
  109SOL    HW1  326   2.587   3.313   3.569 -0.5137  0.5551  1.0382
  109SOL    HW2  327   2.730   3.271   3.595 -0.0995  0.7273 -0.7883
  110SOL     OW  328   0.215   2.248   2.716 -0.0912  0.2207 -0.0399
  110SOL    HW1  329   0.226   2.157   2.742 -0.3264  0.3301  0.4461
  110SOL    HW2  330   0.128   2.251   2.676 -0.4309  0.3979  0.6953
  111SOL     OW  331   0.190   3.036   3.348 -0.0861  0.0668 -0.5401
  111SOL    HW1  332   0.264   2.975   3.351  1.1734  1.4773 -1.5330
  111SOL    HW2  333   0.206   3.089   3.270 -0.6308  2.2770  0.7823
  112SOL     OW  334   1.773   0.421   1.360  0.7867  0.1756  0.3531
  112SOL    HW1  335   1.839   0.370   1.406 -0.3965  0.2448  2.2389
  112SOL    HW2  336   1.699   0.361   1.350 -0.6083  1.4071  2.5570
  113SOL     OW  337   1.157   1.890   1.979 -0.4080  0.5437  0.1492
  113SOL    HW1  338   1.171   1.921   2.069 -0.8641  0.2040  0.3462
  113SOL    HW2  339   1.231   1.832   1.962 -0.6515  0.1036  0.5500
  114SOL     OW  340   4.356   0.531   1.492 -0.1113  0.2196  0.4575
  114SOL    HW1  341   4.405   0.585   1.554 -0.0154 -0.2468  0.7868
  114SOL    HW2  342   4.265   0.558   1.503 -0.1258 -0.0285  0.9738
  115SOL     OW  343   3.715   1.825   3.251  0.4576 -0.0388  0.3116
  115SOL    HW1  344   3.725   1.731   3.267 -0.0939 -0.1106  0.2548
  115SOL    HW2  345   3.710   1.833   3.155  0.8292  0.0850  0.2996
  116SOL     OW  346   2.197   1.132   3.841 -0.2379 -0.5677 -0.2861
  116SOL    HW1  347   2.152   1.112   3.923 -0.7017  0.0879 -0.3742
  116SOL    HW2  348   2.242   1.215   3.857  0.1043 -0.7021 -0.5286
  117SOL     OW  349   4.256   4.303   0.983  0.4675  0.0185  0.4029
  117SOL    HW1  350   4.248   4.344   0.896  2.4134  2.1629  1.1337
  117SOL    HW2  351   4.183   4.340   1.033  0.2210 -0.0768  0.1233
  118SOL     OW  352   0.392   0.509   1.253  0.5035  0.3658 -0.0484
  118SOL    HW1  353   0.360   0.599   1.247  1.2640  0.5680 -1.6671
  118SOL    HW2  354   0.334   0.458   1.197  2.0386  0.4785 -1.8224
  119SOL     OW  355   2.299   2.448   1.790 -0.0186 -0.5807 -0.4829
  119SOL    HW1  356   2.239   2.484   1.856  0.2292  0.6212 -0.8916
  119SOL    HW2  357   2.384   2.486   1.812  0.9613 -3.2846  0.8907
  120SOL     OW  358   1.938   0.207   0.467  0.1527  0.9922 -0.5493
  120SOL    HW1  359   1.896   0.247   0.391  3.2354  2.6683 -1.5748
  120SOL    HW2  360   1.996   0.140   0.430  0.5191  0.7319  0.4672
  121SOL     OW  361   1.878   0.635   1.539 -0.1675 -0.3772 -0.4118
  121SOL    HW1  362   1.830   0.578   1.479 -1.8921  1.4668 -0.8993
  121SOL    HW2  363   1.960   0.656   1.494 -0.6241 -0.5084 -1.3146
  122SOL     OW  364   2.807   2.312   1.125 -0.2181 -0.0214  0.3410
  122SOL    HW1  365   2.847   2.264   1.053 -0.2445 -0.3352  0.5335
  122SOL    HW2  366   2.741   2.252   1.160  0.3422 -0.1924  1.1415
  123SOL     OW  367   3.190   4.486   1.439  0.1292 -0.1868  0.1858
  123SOL    HW1  368   3.130   4.473   1.366 -0.6690 -0.9376  0.9662
  123SOL    HW2  369   3.257   4.419   1.427  0.3183  0.0598 -0.1666
  124SOL     OW  370   2.910   1.773   0.849  0.2020  0.1884 -0.3804
  124SOL    HW1  371   2.842   1.732   0.796 -0.8040  1.1945  0.1032
  124SOL    HW2  372   2.981   1.708   0.851 -1.3665 -1.6151  0.4393
  125SOL     OW  373  -0.000   1.569   0.842  0.1558  0.1202  0.0740
  125SOL    HW1  374   0.080   1.609   0.877 -0.4873  0.8502  0.7530
  125SOL    HW2  375   0.016   1.475   0.847  1.3981  0.2511 -0.8399
  126SOL     OW  376   2.833   1.030   2.711  0.4301  0.1032 -0.3141
  126SOL    HW1  377   2.772   1.055   2.640  0.5562  0.1601 -0.4032
  126SOL    HW2  378   2.839   1.109   2.765  3.8050  1.7265 -2.6663
  127SOL     OW  379   1.897   4.253   0.560  0.1565 -0.3331 -0.3278
  127SOL    HW1  380   1.870   4.188   0.494  1.2460 -1.5307  0.3635
  127SOL    HW2  381   1.849   4.228   0.639  0.0557  0.1532 -0.2286
  128SOL     OW  382   1.657   2.535   0.277 -0.6130 -0.2994  0.4278
  128SOL    HW1  383   1.689   2.528   0.187 -0.3590  0.0642  0.4887
  128SOL    HW2  384   1.734   2.517   0.331 -0.6522 -0.0274  0.5734
  129SOL     OW  385   1.225   1.798   3.162  0.4996  0.4807  0.0168
  129SOL    HW1  386   1.270   1.866   3.112  1.0543 -0.0575 -0.2329
  129SOL    HW2  387   1.185   1.742   3.095  0.7948  0.0611  0.1860
  130SOL     OW  388   3.390   0.990   3.835  0.0031 -0.1610 -0.1512
  130SOL    HW1  389   3.323   1.053   3.859 -0.2170 -0.3266 -0.3267
  130SOL    HW2  390   3.473   1.033   3.858 -0.0797  0.6424 -1.2592
  131SOL     OW  391   1.411   0.156   3.167 -0.3514 -0.7486 -0.1842
  131SOL    HW1  392   1.504   0.160   3.190 -0.3923 -2.0611  0.2515
  131SOL    HW2  393   1.365   0.188   3.245 -0.2607  0.8855 -0.7523
  132SOL     OW  394   1.064   4.374   3.683 -0.4719 -0.1006 -0.4540
  132SOL    HW1  395   0.970   4.363   3.667 -0.5916  0.7147 -0.3532
  132SOL    HW2  396   1.106   4.305   3.630 -1.1245 -0.5067 -0.4492
  133SOL     OW  397   1.626   1.816   3.533  0.0857 -0.2362 -0.0577
  133SOL    HW1  398   1.534   1.799   3.513  0.0156 -1.5595  1.2333
  133SOL    HW2  399   1.625   1.852   3.621  0.6207  2.5250 -1.0942
  134SOL     OW  400   3.971   3.405   0.272 -0.3601 -0.6491  0.4349
  134SOL    HW1  401   3.914   3.337   0.307  0.2278 -0.7628  1.2134
  134SOL    HW2  402   4.044   3.409   0.334  0.3567 -0.3437 -0.4018
  135SOL     OW  403   3.788   1.526   3.262  0.2223  0.0712 -0.5052
  135SOL    HW1  404   3.863   1.552   3.315  0.6998  1.5696 -1.8140
  135SOL    HW2  405   3.728   1.482   3.323  0.7815  1.5957  1.2295
  136SOL     OW  406   0.749   1.275   3.891  0.1268 -0.2554 -0.1812
  136SOL    HW1  407   0.717   1.200   3.943  0.2576 -1.1910 -1.4136
  136SOL    HW2  408   0.702   1.269   3.808  1.1576  0.2300 -0.8149
  137SOL     OW  409   1.735   0.980   3.600  0.1274  0.5815 -0.1402
  137SOL    HW1  410   1.718   0.938   3.516  0.4422 -0.2904  0.2198
  137SOL    HW2  411   1.717   1.073   3.585  1.3015  0.6213 -1.4914
  138SOL     OW  412   1.780   0.036   0.621 -0.0891  0.3609 -0.7155
  138SOL    HW1  413   1.836   0.091   0.566  1.7793  0.6375  1.2831
  138SOL    HW2  414   1.806  -0.054   0.599  1.9645  0.4881  0.8085
  139SOL     OW  415   2.541   0.670   0.436 -0.1133 -0.0283  0.1497
  139SOL    HW1  416   2.455   0.632   0.450 -0.2942 -0.3031 -1.4802
  139SOL    HW2  417   2.526   0.765   0.444 -0.8380  0.0040 -1.2711
  140SOL     OW  418   3.421   4.321   1.415  0.4953  0.7156 -0.4079
  140SOL    HW1  419   3.497   4.285   1.462  1.4715  0.3189 -2.1929
  140SOL    HW2  420   3.424   4.279   1.329 -2.8954 -0.7904  0.0453
  141SOL     OW  421   0.475   1.949   3.967 -0.3703 -0.2311  0.2683
  141SOL    HW1  422   0.442   1.866   4.001 -1.8468  0.2048 -0.0476
  141SOL    HW2  423   0.519   1.990   4.042 -0.8799 -0.6575  0.8000
  142SOL     OW  424   2.765   0.704   3.390  0.2025 -0.2511  0.2266
  142SOL    HW1  425   2.719   0.663   3.463 -1.1575 -1.2441 -1.1241
  142SOL    HW2  426   2.719   0.787   3.377  1.3024  0.5663  1.3036
  143SOL     OW  427   0.730   3.587   3.603  0.3757  0.0087  0.6944
  143SOL    HW1  428   0.790   3.591   3.528  0.8056  0.6290  1.0665
  143SOL    HW2  429   0.659   3.531   3.573  0.3794  0.5093 -0.3024
  144SOL     OW  430   2.730   2.033   1.416  0.2606 -0.3407 -0.2553
  144SOL    HW1  431   2.698   2.029   1.326  1.5294 -0.0402 -0.7285
  144SOL    HW2  432   2.769   1.947   1.431 -0.6275 -0.6683  0.2906
  145SOL     OW  433   3.707   3.659   0.921 -0.3349  0.0585 -0.1718
  145SOL    HW1  434   3.709   3.739   0.870  1.1756  2.3602  3.1657
  145SOL    HW2  435   3.774   3.603   0.881 -0.3494  1.0508 -1.6475
  146SOL     OW  436   0.864   0.108   3.620  0.2199  0.5677 -0.7047
  146SOL    HW1  437   0.867   0.026   3.571 -0.0275  0.8489 -1.1894
  146SOL    HW2  438   0.861   0.080   3.712 -1.3991 -0.0036 -0.8964
  147SOL     OW  439   0.084   1.204   4.282  0.0129 -0.0300  0.0704
  147SOL    HW1  440   0.152   1.138   4.272  0.6091  0.5098  0.5365
  147SOL    HW2  441   0.020   1.164   4.342 -0.4997 -0.8487 -0.9891
  148SOL     OW  442   2.822   0.660   4.169 -0.6018 -0.0369 -0.0527
  148SOL    HW1  443   2.893   0.705   4.213 -1.3983 -0.2873  1.5792
  148SOL    HW2  444   2.803   0.584   4.224 -3.1175  0.8395  0.4533
  149SOL     OW  445   0.821   3.600   0.467  0.2361  0.2949 -0.0851
  149SOL    HW1  446   0.889   3.560   0.521  1.1074  1.9782  0.1385
  149SOL    HW2  447   0.860   3.610   0.380 -0.6037 -0.9394 -0.6332
  150SOL     OW  448   3.047   1.521   3.312  0.3559  0.3112 -0.2475
  150SOL    HW1  449   2.955   1.522   3.338  0.9896  0.2298  2.2974
  150SOL    HW2  450   3.051   1.580   3.237 -1.5943  1.2005  0.2681
  151SOL     OW  451   1.914   1.391   3.142 -0.4915  0.1914  0.4908
  151SOL    HW1  452   1.835   1.379   3.090 -0.2953  0.9907 -0.0073
  151SOL    HW2  453   1.896   1.469   3.195  0.4741  1.2117 -0.6393
  152SOL     OW  454   3.259   4.044   3.169 -0.0140  0.1196 -0.1593
  152SOL    HW1  455   3.224   4.112   3.225  2.0706  1.7804 -0.7611
  152SOL    HW2  456   3.182   3.995   3.140 -1.4175  1.2012  1.5443
  153SOL     OW  457   3.845   3.252   1.022 -0.2201 -0.1431 -0.4074
  153SOL    HW1  458   3.794   3.288   1.095 -1.4969  0.9334 -1.7816
  153SOL    HW2  459   3.784   3.249   0.949  0.9828 -1.3828 -1.4125
  154SOL     OW  460   0.864   2.168   0.780 -0.1135  0.0340  0.2529
  154SOL    HW1  461   0.835   2.188   0.691 -0.1880  0.4395  0.3649
  154SOL    HW2  462   0.825   2.083   0.800  1.2310 -0.8578 -0.6972
  155SOL     OW  463   3.706   2.676   0.133 -0.2196 -0.1702  0.2341
  155SOL    HW1  464   3.795   2.700   0.109 -0.6490  0.4947 -0.7255
  155SOL    HW2  465   3.711   2.582   0.151  0.9762  0.1198  1.6801
  156SOL     OW  466   2.136   1.984   0.142  0.3367 -0.4300 -0.1311
  156SOL    HW1  467   2.185   2.026   0.070  0.9506 -1.3849 -0.2854
  156SOL    HW2  468   2.203   1.940   0.193 -0.2141 -0.5274  0.5125
  157SOL     OW  469   1.264   4.052   1.323 -0.3283 -0.2563  0.0589
  157SOL    HW1  470   1.286   4.087   1.237  0.6081 -1.4225 -0.1979
  157SOL    HW2  471   1.182   4.096   1.347 -0.9627 -0.4051 -1.7224
  158SOL     OW  472   2.078   1.302   1.494  0.7726 -0.3235 -0.1131
  158SOL    HW1  473   1.997   1.293   1.544  0.8677  1.7788  0.5218
  158SOL    HW2  474   2.147   1.310   1.560  1.7663 -3.3855 -0.6339
  159SOL     OW  475   3.888   3.657   2.133 -0.3666  0.2705 -0.2250
  159SOL    HW1  476   3.797   3.654   2.162 -0.4413  2.2985 -0.0648
  159SOL    HW2  477   3.883   3.688   2.042  0.1166 -0.7537 -0.6092
  160SOL     OW  478   3.076   2.317   4.062 -0.6599  0.3422  0.8040
  160SOL    HW1  479   2.996   2.345   4.106 -0.2760  1.1019  1.0261
  160SOL    HW2  480   3.057   2.326   3.969 -1.4526 -1.2111  0.7812
  161SOL     OW  481   0.692   2.518   2.783 -0.0554 -0.8615  0.2044
  161SOL    HW1  482   0.618   2.465   2.755  0.0595 -0.8263 -0.1878
  161SOL    HW2  483   0.733   2.468   2.854 -0.6683 -0.6993  0.6749
  162SOL     OW  484   2.355   0.366   2.050 -0.5584 -0.5780  0.7095
  162SOL    HW1  485   2.320   0.423   2.117 -0.2585  0.2890  0.1460
  162SOL    HW2  486   2.428   0.415   2.012 -0.7201 -1.0486 -0.2472
  163SOL     OW  487   0.960   2.371   1.136 -1.0041  0.0293  0.0830
  163SOL    HW1  488   0.975   2.465   1.128 -1.3131  0.2081  1.4359
  163SOL    HW2  489   1.046   2.332   1.121 -0.9540  0.4844 -0.9189
  164SOL     OW  490   2.903   2.536   1.270 -0.1323 -0.3650  0.2260
  164SOL    HW1  491   2.878   2.457   1.222  0.7088 -0.8763  0.6030
  164SOL    HW2  492   2.947   2.504   1.348 -0.3767  0.4780  0.7233
  165SOL     OW  493   0.218   3.005   0.736  0.1898 -0.2407  0.4749
  165SOL    HW1  494   0.174   3.089   0.723  0.2929 -0.1368  0.7850
  165SOL    HW2  495   0.267   3.016   0.818  0.6067 -0.4276  0.2582
  166SOL     OW  496   0.467   4.400   3.678 -0.4283  0.4067 -0.0424
  166SOL    HW1  497   0.389   4.346   3.664 -1.1463  0.9505  1.5490
  166SOL    HW2  498   0.521   4.349   3.739 -0.6183  1.0018  0.6386
  167SOL     OW  499   0.106   0.744   3.831 -0.2644  0.4178  0.4732
  167SOL    HW1  500   0.143   0.826   3.798 -0.4545  0.1405 -0.4724
  167SOL    HW2  501   0.041   0.720   3.766 -1.2418  0.2503  1.4851
  168SOL     OW  502   2.799   3.957   2.243 -0.2752 -0.2091  0.2686
  168SOL    HW1  503   2.807   4.049   2.267 -1.1076 -0.1748  0.4375
  168SOL    HW2  504   2.772   3.958   2.151  0.9589 -0.3140 -0.1141
  169SOL     OW  505   4.172   3.777   3.466  0.1419  0.6212  0.3720
  169SOL    HW1  506   4.139   3.687   3.464 -1.9433  1.3202  0.3573
  169SOL    HW2  507   4.239   3.780   3.398 -1.7234 -0.2539 -1.6368
  170SOL     OW  508   4.360   1.986   1.773  0.1210  0.1457  0.3299
  170SOL    HW1  509   4.316   1.994   1.858  0.9442  1.0030  0.6905
  170SOL    HW2  510   4.376   1.892   1.763 -0.0453  0.0333  1.0975
  171SOL     OW  511   2.133   2.068   1.598  0.0644 -0.0863  0.1391
  171SOL    HW1  512   2.060   2.129   1.601  0.7264  0.9091 -1.8828
  171SOL    HW2  513   2.211   2.124   1.603  0.6701 -0.8208 -0.6772
  172SOL     OW  514   1.509   3.373   3.561  0.8142  0.1155  0.6954
  172SOL    HW1  515   1.562   3.303   3.599  0.3605 -1.5016 -1.4536
  172SOL    HW2  516   1.536   3.451   3.609  3.4066 -1.0250  1.3182
  173SOL     OW  517   0.842   1.643   1.406  0.0967  0.9260  0.5035
  173SOL    HW1  518   0.803   1.638   1.493  0.2377 -1.2506  0.4906
  173SOL    HW2  519   0.936   1.650   1.422  0.1578  0.0898  0.5428
  174SOL     OW  520   2.530   2.502   4.360  0.1702 -0.0026  0.0726
  174SOL    HW1  521   2.580   2.580   4.336  0.1273 -0.0254 -0.0899
  174SOL    HW2  522   2.450   2.508   4.308 -0.7643  0.8959  1.5251
  175SOL     OW  523   3.236   4.028   0.679 -0.8335 -0.4380  0.5220
  175SOL    HW1  524   3.231   4.020   0.774  0.9194 -2.3481  0.5049
  175SOL    HW2  525   3.312   4.083   0.663 -0.7720 -0.6154  0.2030
  176SOL     OW  526   0.732   4.126   3.144 -0.4722 -0.1457  0.3389
  176SOL    HW1  527   0.666   4.194   3.159 -0.3366 -0.0885  0.6865
  176SOL    HW2  528   0.684   4.055   3.102 -0.8037 -0.1849  0.7713
  177SOL     OW  529   3.203   0.809   3.640 -0.2944 -0.2620 -0.2714
  177SOL    HW1  530   3.146   0.767   3.576  0.9664 -2.3566 -0.0920
  177SOL    HW2  531   3.239   0.885   3.595 -0.8100 -0.6898 -1.4250
  178SOL     OW  532   4.157   0.382   3.580 -0.1743 -0.5676 -0.0143
  178SOL    HW1  533   4.203   0.433   3.513  0.4066  0.6630  1.2742
  178SOL    HW2  534   4.065   0.404   3.569  0.0199  0.3991  0.1983
  179SOL     OW  535   4.280   3.206   0.884 -0.0268 -0.4984 -0.1067
  179SOL    HW1  536   4.291   3.140   0.952 -0.3488  0.2785  0.7265
  179SOL    HW2  537   4.224   3.272   0.925  2.9640  1.9915  0.3401
  180SOL     OW  538   0.053   3.347   3.407  0.8340 -0.7017  0.3755
  180SOL    HW1  539  -0.015   3.282   3.423 -0.5041  0.5255 -0.0337
  180SOL    HW2  540   0.031   3.383   3.321  1.4602  0.3566  0.6420
  181SOL     OW  541   1.163   2.944   4.186  0.3578 -0.6458  0.2037
  181SOL    HW1  542   1.080   2.945   4.233  0.8711  0.6906  1.1568
  181SOL    HW2  543   1.153   3.007   4.116  1.0642  0.7655  1.3163
  182SOL     OW  544   0.981   3.978   3.579  0.7150 -0.2138 -0.1076
  182SOL    HW1  545   0.973   4.053   3.520  0.1805 -0.6797 -0.6457
  182SOL    HW2  546   1.068   3.943   3.562  1.7214  1.3601  1.4790
  183SOL     OW  547   3.480   2.507   4.325  0.4291 -0.1273 -0.3106
  183SOL    HW1  548   3.458   2.482   4.415  0.8061  0.3342 -0.0854
  183SOL    HW2  549   3.415   2.462   4.271  0.8259 -1.2476  0.1112
  184SOL     OW  550   1.636   0.174   0.065 -0.6557 -0.2028  0.4438
  184SOL    HW1  551   1.629   0.091   0.020  0.3455  0.6497 -1.4127
  184SOL    HW2  552   1.607   0.239   0.001 -0.0204  0.9905  1.3178
  185SOL     OW  553   2.958   3.921   1.422 -0.4180 -0.4635  0.4272
  185SOL    HW1  554   3.000   4.006   1.427 -3.3197  1.1338  0.0274
  185SOL    HW2  555   2.984   3.886   1.337  0.8111 -0.0251  0.6040
  186SOL     OW  556   2.280   0.964   2.482 -0.5009  0.1857 -0.3806
  186SOL    HW1  557   2.363   0.951   2.527  0.6068 -0.3561 -2.4760
  186SOL    HW2  558   2.272   1.059   2.475 -0.5232  0.2682  0.6077
  187SOL     OW  559   3.886   1.558   4.093 -0.2311  0.0074  0.2264
  187SOL    HW1  560   3.863   1.531   4.182 -0.2535  0.0711  0.2398
  187SOL    HW2  561   3.921   1.646   4.103  1.3097 -0.5946  0.3869
  188SOL     OW  562   0.963   0.996   4.184  0.3585 -0.1248 -0.0288
  188SOL    HW1  563   0.968   0.972   4.276  0.1221 -0.2118 -0.0390
  188SOL    HW2  564   1.006   1.081   4.179  0.7464 -0.3079  0.0931
  189SOL     OW  565   1.558   2.851   1.418 -0.2944 -0.2799  0.8562
  189SOL    HW1  566   1.635   2.810   1.378  0.5212  0.0794  2.0235
  189SOL    HW2  567   1.537   2.796   1.493 -1.1723 -0.3572  0.5612
  190SOL     OW  568   4.440   1.221   1.923 -0.0925 -0.5707  0.3170
  190SOL    HW1  569   4.501   1.182   1.985  0.4853  0.8506  0.6997
  190SOL    HW2  570   4.453   1.316   1.934 -2.4730 -0.2031  0.5355
  191SOL     OW  571   2.877   4.284   3.554 -0.3967  0.0311 -0.3081
  191SOL    HW1  572   2.965   4.319   3.538 -0.2061  0.4532  1.4465
  191SOL    HW2  573   2.888   4.189   3.552  0.1630  0.0797  0.1530
  192SOL     OW  574   2.862   3.127   3.628 -0.6831  0.1190 -0.1375
  192SOL    HW1  575   2.929   3.093   3.568  1.6943  2.2096  1.1022
  192SOL    HW2  576   2.910   3.190   3.682 -3.6147  1.3650  1.1859
  193SOL     OW  577   3.629   0.378   1.850 -0.0798  0.1865  0.0611
  193SOL    HW1  578   3.684   0.408   1.922  1.3092  0.7139 -1.1617
  193SOL    HW2  579   3.637   0.282   1.852  1.0681  0.2559 -0.1978
  194SOL     OW  580   3.475   3.540   0.784 -0.0750 -0.2959 -0.6237
  194SOL    HW1  581   3.558   3.568   0.823 -1.2166  0.1365  1.6929
  194SOL    HW2  582   3.443   3.617   0.737  0.2219 -0.0149 -0.3687
  195SOL     OW  583   2.322   1.322   4.030  0.2509  0.5077 -0.0692
  195SOL    HW1  584   2.358   1.393   4.083 -0.1162  1.3463 -0.9093
  195SOL    HW2  585   2.372   1.245   4.056 -0.6135  0.6467  2.2701
  196SOL     OW  586   2.983   1.490   1.364  0.0609 -0.3723 -0.3407
  196SOL    HW1  587   3.072   1.455   1.374  0.5618  0.6863 -0.8690
  196SOL    HW2  588   2.977   1.560   1.429 -0.6551 -0.9182  0.1889
  197SOL     OW  589   4.193   2.713   2.534 -0.2305  0.4370  0.3424
  197SOL    HW1  590   4.252   2.726   2.459  0.6619  0.5555  1.0467
  197SOL    HW2  591   4.155   2.799   2.549 -0.8897  0.2768 -0.3552
  198SOL     OW  592   4.045   4.403   1.132  0.2187  0.0590  0.0484
  198SOL    HW1  593   4.104   4.474   1.156  1.7465 -0.4825 -1.9331
  198SOL    HW2  594   4.041   4.348   1.211 -0.4310  1.8836  1.3701
  199SOL     OW  595   1.811   1.430   0.727 -0.1370 -0.2583 -0.9309
  199SOL    HW1  596   1.803   1.517   0.687  0.3576 -0.6839 -1.9861
  199SOL    HW2  597   1.904   1.408   0.718  0.0039 -0.3408  0.5380
  200SOL     OW  598   3.835   2.880   2.389  0.3408  0.0114  0.0543
  200SOL    HW1  599   3.912   2.926   2.355  1.0915 -1.2293  0.0221
  200SOL    HW2  600   3.768   2.948   2.398  1.1777  0.9604 -0.7196
  201SOL     OW  601   2.085   0.708   3.083  0.4524  0.2538  0.2808
  201SOL    HW1  602   2.117   0.798   3.082 -0.8699  0.8289 -2.4702
  201SOL    HW2  603   2.159   0.656   3.053  1.0117  0.4999  1.1987
  202SOL     OW  604   2.879   0.019   4.423 -0.0820 -1.0817 -0.0630
  202SOL    HW1  605   2.882   0.017   4.327  0.2190 -1.1051 -0.0540
  202SOL    HW2  606   2.786   0.008   4.444 -0.5670  1.5855 -0.4144
  203SOL     OW  607   0.052   0.534   0.893 -0.2197  0.1795 -0.3389
  203SOL    HW1  608   0.017   0.464   0.837 -0.0656 -0.1626 -0.0080
  203SOL    HW2  609   0.146   0.519   0.894 -0.3632 -0.8576  1.3848
  204SOL     OW  610   0.381   4.458   1.442  0.5833 -0.0532 -0.3315
  204SOL    HW1  611   0.408   4.399   1.512  0.8485  0.1594 -0.2548
  204SOL    HW2  612   0.396   4.409   1.361 -1.7733 -1.1614 -0.1789
  205SOL     OW  613   3.684   1.340   1.099 -0.6378 -0.0637  0.1916
  205SOL    HW1  614   3.758   1.329   1.159 -0.5506 -1.3857 -0.1396
  205SOL    HW2  615   3.615   1.285   1.135 -0.9779  0.0367 -0.2986
  206SOL     OW  616   1.012   3.654   3.202  0.5189 -0.3367 -0.3816
  206SOL    HW1  617   0.999   3.745   3.175  0.2488 -0.5242 -0.8879
  206SOL    HW2  618   1.044   3.609   3.123  3.4284 -0.1112  0.5277
  207SOL     OW  619   1.312   0.325   1.127 -0.2489 -0.3028 -0.9661
  207SOL    HW1  620   1.272   0.408   1.103  1.1252 -0.1488 -2.9178
  207SOL    HW2  621   1.383   0.348   1.187 -1.4489 -0.3613  0.5490
  208SOL     OW  622   0.498   1.106   0.417 -0.5091 -0.0112  0.0436
  208SOL    HW1  623   0.545   1.048   0.356  0.6455  0.0591  0.8329
  208SOL    HW2  624   0.480   1.185   0.366 -0.5651 -0.4033 -0.5462
  209SOL     OW  625   0.227   1.280   2.559  0.1580 -0.1479 -0.2040
  209SOL    HW1  626   0.153   1.255   2.504 -0.2569 -1.1383  0.7942
  209SOL    HW2  627   0.194   1.352   2.612 -0.4701 -1.3363  1.0554
  210SOL     OW  628   1.028   1.198   4.450  0.0467 -0.5785 -0.0643
  210SOL    HW1  629   1.095   1.190   4.382 -0.8079  1.1048 -1.1742
  210SOL    HW2  630   1.075   1.232   4.526  0.7017 -0.7651 -0.3774
  211SOL     OW  631   3.527   1.399   0.825 -0.4909 -0.4047  0.4205
  211SOL    HW1  632   3.577   1.480   0.815 -0.5853 -0.2367  1.2072
  211SOL    HW2  633   3.562   1.359   0.905 -0.8493 -0.8461  0.3617
  212SOL     OW  634   0.084   2.542   2.686 -0.1319  0.0482  0.2252
  212SOL    HW1  635   0.142   2.525   2.612 -1.2436 -0.5870 -0.5166
  212SOL    HW2  636   0.137   2.520   2.763  0.4057 -1.1885 -0.4666
  213SOL     OW  637   3.311   2.279   3.711 -0.1040  0.0127 -0.0914
  213SOL    HW1  638   3.263   2.356   3.742 -0.7590 -0.5634  0.3541
  213SOL    HW2  639   3.298   2.279   3.616  1.2906  1.3710 -0.3154
  214SOL     OW  640   0.640   2.610  -0.032  0.5041  0.1200  0.2519
  214SOL    HW1  641   0.598   2.530  -0.002  1.9985 -0.2947  1.3744
  214SOL    HW2  642   0.620   2.675   0.035 -0.2587  0.5562 -0.3857
  215SOL     OW  643   3.940   3.051   1.345 -0.2718 -0.8149  0.3764
  215SOL    HW1  644   3.935   2.988   1.273 -0.0262 -1.0493  0.5649
  215SOL    HW2  645   3.864   3.108   1.331  0.3829 -0.1746 -0.6990
  216SOL     OW  646   3.648   2.046   1.803  0.1082 -0.5736 -0.5574
  216SOL    HW1  647   3.639   2.071   1.711  1.0244  1.0139 -0.2492
  216SOL    HW2  648   3.558   2.042   1.835 -0.1504  2.5429 -0.6287
  217SOL     OW  649   0.674   1.661   3.498  0.2878  0.3435 -0.1647
  217SOL    HW1  650   0.579   1.663   3.514  0.1431  1.0835 -1.0246
  217SOL    HW2  651   0.711   1.626   3.578 -0.8796 -1.9746 -0.5397
  218SOL     OW  652   0.439   1.521   1.332 -0.1079  0.0142 -0.1637
  218SOL    HW1  653   0.483   1.600   1.301  0.1163 -0.5357 -1.2965
  218SOL    HW2  654   0.490   1.449   1.295  0.3365 -0.7031  1.7304
  219SOL     OW  655   3.533   0.506   3.307 -0.4185 -0.0956 -0.1522
  219SOL    HW1  656   3.607   0.540   3.359 -0.1548 -0.4435 -0.2970
  219SOL    HW2  657   3.489   0.444   3.366 -1.1677  0.8162  0.2719
  220SOL     OW  658   1.333   2.610   0.542  0.0054 -0.2094 -0.2712
  220SOL    HW1  659   1.340   2.518   0.568  0.4107 -0.3778 -0.9607
  220SOL    HW2  660   1.328   2.608   0.447  1.5476  0.5638 -0.4024
  221SOL     OW  661   4.412   2.911   4.346 -0.3667 -0.4632 -0.0793
  221SOL    HW1  662   4.377   2.897   4.258 -1.6720  1.4658  0.0557
  221SOL    HW2  663   4.479   2.978   4.335  1.6319 -2.3120  0.0495
  222SOL     OW  664   0.073   2.704   1.273  0.6895  0.4687  0.1208
  222SOL    HW1  665   0.013   2.662   1.210 -0.2988  2.3917 -0.2894
  222SOL    HW2  666   0.079   2.795   1.243  2.1389  0.8358  1.4194
  223SOL     OW  667   1.097   2.398   3.329  0.0989  0.0209 -0.3660
  223SOL    HW1  668   1.014   2.390   3.282  0.0114 -1.5727  0.0139
  223SOL    HW2  669   1.076   2.378   3.420  1.2534 -2.8629 -0.6273
  224SOL     OW  670   1.614   1.247   3.559 -0.1595 -0.2465  0.2542
  224SOL    HW1  671   1.579   1.288   3.480 -0.3312 -0.9304 -0.0302
  224SOL    HW2  672   1.699   1.289   3.572 -0.8270  1.0435  0.6507
  225SOL     OW  673   2.825   1.211   3.236  0.4232 -0.0285 -0.5257
  225SOL    HW1  674   2.759   1.172   3.292 -0.2339 -0.0236 -1.2792
  225SOL    HW2  675   2.857   1.287   3.285  0.0928 -0.2088 -0.0253
  226SOL     OW  676   2.994   3.892   0.815  0.1114 -0.5414 -0.2621
  226SOL    HW1  677   3.013   3.819   0.875 -2.1416 -0.7095  0.3449
  226SOL    HW2  678   2.992   3.852   0.728 -1.3899 -1.3440  0.0926
  227SOL     OW  679   2.217   1.444   3.629 -0.0359  0.1592 -0.2816
  227SOL    HW1  680   2.166   1.392   3.567 -0.2413  0.1098 -0.0751
  227SOL    HW2  681   2.256   1.514   3.576 -0.4668  0.3054 -0.4126
  228SOL     OW  682   0.441   3.836   0.133 -0.5460 -0.1895 -0.0765
  228SOL    HW1  683   0.472   3.748   0.110  1.0849  0.7479 -1.7449
  228SOL    HW2  684   0.425   3.832   0.228  0.3449 -2.0277  0.0430
  229SOL     OW  685   2.299   3.064   1.622  0.0736 -0.4413  0.1866
  229SOL    HW1  686   2.358   3.118   1.675  0.6381  0.4109 -1.2332
  229SOL    HW2  687   2.320   3.088   1.532 -0.6009 -2.0869 -0.4512
  230SOL     OW  688   0.712   1.227   2.816  0.0110 -0.9725  0.1175
  230SOL    HW1  689   0.650   1.263   2.879  0.1935 -0.0393 -0.2265
  230SOL    HW2  690   0.784   1.290   2.815  0.3240 -1.3321 -0.5161
  231SOL     OW  691   1.632   3.673   0.035  0.0955 -0.4553 -0.3402
  231SOL    HW1  692   1.715   3.671  -0.013  1.0827  0.4064  1.2319
  231SOL    HW2  693   1.640   3.603   0.100 -0.0945  0.0969  0.2919
  232SOL     OW  694   3.390   3.679   0.428  0.5215  0.0273  0.1193
  232SOL    HW1  695   3.319   3.661   0.366  1.5064 -0.3298 -0.9372
  232SOL    HW2  696   3.438   3.596   0.434  0.9759  0.3263  0.6455
  233SOL     OW  697   3.399   0.603   1.436 -0.0715 -0.2368  0.8389
  233SOL    HW1  698   3.422   0.541   1.505  1.1469 -0.4790  0.2383
  233SOL    HW2  699   3.482   0.626   1.395 -0.4739  1.8694  1.0812
  234SOL     OW  700   3.560   1.812   4.079  0.0629 -0.0715 -0.2772
  234SOL    HW1  701   3.475   1.834   4.041  0.0770  0.3559 -0.0634
  234SOL    HW2  702   3.566   1.717   4.070 -1.0167 -0.2755  0.9393
  235SOL     OW  703   0.440   3.358   0.373  0.2076 -0.4471  0.1961
  235SOL    HW1  704   0.506   3.423   0.396  1.0971 -1.3672  0.3193
  235SOL    HW2  705   0.381   3.404   0.313  0.1277  0.8160  1.1889
  236SOL     OW  706   4.325   1.464   3.000  0.0206 -0.2848 -0.3420
  236SOL    HW1  707   4.391   1.397   2.982 -1.2167 -1.4008 -0.9060
  236SOL    HW2  708   4.243   1.425   2.969 -0.4489  2.3606 -2.7861
  237SOL     OW  709   4.331   3.389   1.146  0.3923  0.2697  0.1417
  237SOL    HW1  710   4.417   3.420   1.175  0.6956 -0.8562  0.4975
  237SOL    HW2  711   4.339   3.293   1.145 -0.5442  0.1817 -0.8153
  238SOL     OW  712   3.773   3.150   3.282 -0.4330 -0.6507  0.6749
  238SOL    HW1  713   3.697   3.205   3.263 -1.6994 -2.7173 -0.5720
  238SOL    HW2  714   3.767   3.135   3.377 -1.5951 -0.7736  0.6049
  239SOL     OW  715   4.061   2.099   2.123 -0.3420  0.1032 -0.3340
  239SOL    HW1  716   4.023   2.061   2.202  2.0458 -2.8547 -0.3907
  239SOL    HW2  717   3.991   2.093   2.058 -1.4209 -0.2230  0.8141
  240SOL     OW  718   1.461   1.577   0.951  0.2908 -0.0709  0.2317
  240SOL    HW1  719   1.391   1.625   0.907 -0.4790 -1.1846  0.1878
  240SOL    HW2  720   1.456   1.488   0.914  0.8195 -0.5372  1.2355
  241SOL     OW  721   4.151   3.912   0.460  0.6705 -0.1371 -0.3717
  241SOL    HW1  722   4.125   3.905   0.552  0.8538  0.0545 -0.3054
  241SOL    HW2  723   4.093   3.850   0.414 -0.2237  0.6045 -0.2803
  242SOL     OW  724   1.283   2.775   3.099 -0.0407 -0.3692  1.1003
  242SOL    HW1  725   1.200   2.775   3.053  1.1283 -0.7267 -1.1775
  242SOL    HW2  726   1.320   2.862   3.084  0.9871 -0.9585  0.0961
  243SOL     OW  727   4.155   3.780   2.186  0.4820  0.0050  0.2701
  243SOL    HW1  728   4.064   3.793   2.211  0.2396  0.8792 -0.9414
  243SOL    HW2  729   4.159   3.692   2.149 -0.3225  0.6251 -1.3982
  244SOL     OW  730   3.190   3.101   2.248  0.0168 -0.1184  0.2678
  244SOL    HW1  731   3.108   3.075   2.207  1.0278 -0.1045 -1.9175
  244SOL    HW2  732   3.193   3.196   2.239 -0.5811  0.1310  2.1598
  245SOL     OW  733   1.253   2.378   2.962 -0.2861  0.2722  0.4138
  245SOL    HW1  734   1.275   2.357   3.053  1.9723 -2.5133 -0.5943
  245SOL    HW2  735   1.301   2.459   2.944  1.6201 -0.6620  0.9941
  246SOL     OW  736   4.105   0.688   2.174 -0.2789 -0.4490 -0.3726
  246SOL    HW1  737   4.181   0.690   2.116 -0.4042 -1.1427 -0.5770
  246SOL    HW2  738   4.142   0.698   2.262  0.1130 -1.3313 -0.4245
  247SOL     OW  739   3.884   1.347   2.607 -0.4332  0.1847 -0.2885
  247SOL    HW1  740   3.956   1.351   2.669 -1.1303  0.3169  0.5277
  247SOL    HW2  741   3.818   1.407   2.642 -2.2221 -2.1610  0.7012
  248SOL     OW  742   0.325   3.805   2.931 -0.4211 -0.0635  0.0347
  248SOL    HW1  743   0.269   3.834   2.859 -0.5493 -2.0825 -0.7479
  248SOL    HW2  744   0.307   3.711   2.938  3.4409 -1.0508 -0.8749
  249SOL     OW  745   0.931   4.150   4.456  0.1378 -0.0550  0.3866
  249SOL    HW1  746   0.956   4.142   4.364  2.4152  1.6119  0.7681
  249SOL    HW2  747   0.856   4.210   4.455  1.6537  1.9713 -0.3053
  250SOL     OW  748   1.114   4.199   0.168 -0.0202 -0.2138 -0.4360
  250SOL    HW1  749   1.172   4.125   0.182  0.3010 -0.1482 -1.3265
  250SOL    HW2  750   1.036   4.162   0.127  0.1065 -0.0729 -0.8074
  251SOL     OW  751   0.163   1.042   2.004  0.6171  0.1358 -0.3076
  251SOL    HW1  752   0.258   1.055   1.999  0.7850 -0.7848  0.2191
  251SOL    HW2  753   0.147   1.020   2.096  0.2129 -1.9358 -0.8155
  252SOL     OW  754   2.994   1.170   1.914 -0.3173 -0.5700  1.1742
  252SOL    HW1  755   3.006   1.265   1.905  0.8232 -0.8476 -0.9307
  252SOL    HW2  756   2.905   1.154   1.883 -0.3293 -0.2419  1.0336
  253SOL     OW  757   2.058   1.178   2.983 -0.6972 -0.2643  0.1131
  253SOL    HW1  758   2.135   1.235   2.980  1.3220 -2.7504  0.8619
  253SOL    HW2  759   2.019   1.195   3.069 -0.2361  0.1349  0.2468
  254SOL     OW  760   1.945   2.409   3.286  0.2373  0.1335 -0.4992
  254SOL    HW1  761   2.020   2.440   3.336  0.2307 -0.1626 -0.3056
  254SOL    HW2  762   1.980   2.342   3.228 -0.0723 -0.8436  0.4125
  255SOL     OW  763   3.622   0.795   4.092 -0.5750 -0.3993 -0.3994
  255SOL    HW1  764   3.706   0.834   4.116  0.3575 -1.8306 -1.2404
  255SOL    HW2  765   3.628   0.704   4.120 -2.2581 -0.2846  0.4500
  256SOL     OW  766   2.544   1.645   0.881  0.2268 -0.3165  0.2468
  256SOL    HW1  767   2.580   1.670   0.796  1.7971  0.0977  0.9965
  256SOL    HW2  768   2.620   1.641   0.939 -0.8580 -0.1722  1.7371
  257SOL     OW  769   3.806   1.115   4.229  0.3234  0.1239  0.4694
  257SOL    HW1  770   3.815   1.021   4.219  1.0135 -0.0260  2.1698
  257SOL    HW2  771   3.772   1.127   4.318 -1.3410  1.4209 -0.2859
  258SOL     OW  772   0.376   0.756   4.289 -0.2138  1.0125 -0.0792
  258SOL    HW1  773   0.360   0.849   4.309 -1.5711  0.4304  1.8561
  258SOL    HW2  774   0.364   0.712   4.373  0.6522 -0.9090 -0.9191
  259SOL     OW  775   1.575   1.953   2.297  0.2693  0.4291  0.4635
  259SOL    HW1  776   1.542   1.863   2.295 -1.2077  0.9491  0.6312
  259SOL    HW2  777   1.530   1.994   2.370  0.6585  1.4130  0.1685
  260SOL     OW  778   2.195   1.958   1.328  0.3124  0.1889 -0.1957
  260SOL    HW1  779   2.233   1.873   1.307 -0.3937 -0.1095 -0.3188
  260SOL    HW2  780   2.167   1.950   1.419 -1.2164 -0.2906 -0.6761
  261SOL     OW  781   0.251   3.536   2.262  0.2707 -0.1453  0.2057
  261SOL    HW1  782   0.253   3.484   2.342  0.8529  1.5211  1.3140
  261SOL    HW2  783   0.172   3.590   2.270  0.5946  0.3824 -0.1219
  262SOL     OW  784   1.557   3.571   3.917 -0.2809 -0.3852  0.0491
  262SOL    HW1  785   1.474   3.565   3.868  0.0328 -0.5440 -0.4731
  262SOL    HW2  786   1.580   3.480   3.936 -0.8192 -0.2903  1.2234
  263SOL     OW  787   1.274   0.164   1.476 -0.7653 -0.6282 -0.6797
  263SOL    HW1  788   1.210   0.132   1.539 -2.2105 -0.1890 -1.8589
  263SOL    HW2  789   1.333   0.220   1.527 -2.0247 -0.1058  0.2453
  264SOL     OW  790   4.058   0.918   1.444 -0.0365 -0.4091 -0.2879
  264SOL    HW1  791   4.131   0.972   1.475 -0.2447 -0.4497  0.2925
  264SOL    HW2  792   4.078   0.830   1.476 -0.2683 -0.4478 -0.2494
  265SOL     OW  793   4.050   3.024   2.086  0.6018  0.0286 -0.3359
  265SOL    HW1  794   3.964   3.041   2.048 -0.4876  0.8302  2.2736
  265SOL    HW2  795   4.106   3.003   2.011 -1.2728  1.8106 -2.3527
  266SOL     OW  796   4.437   2.912   0.607 -0.3371  0.0673 -0.0746
  266SOL    HW1  797   4.460   2.831   0.652 -1.4291  0.4887  1.3280
  266SOL    HW2  798   4.514   2.968   0.615 -0.5259  0.1660  1.4307
  267SOL     OW  799   2.412   1.965   3.541 -0.6351 -0.0703  0.6898
  267SOL    HW1  800   2.481   1.911   3.503 -0.0000  0.8783  0.4778
  267SOL    HW2  801   2.331   1.929   3.503 -0.3723 -1.7231  1.5805
  268SOL     OW  802   0.197   2.959   4.244 -0.3365 -0.1870  0.0748
  268SOL    HW1  803   0.184   2.987   4.334 -0.0142  0.2450 -0.0123
  268SOL    HW2  804   0.255   3.024   4.206 -1.8594  0.6216 -0.9643
  269SOL     OW  805   3.051   1.861   3.211  0.6073  0.7645 -0.2133
  269SOL    HW1  806   3.028   1.950   3.183 -1.1876  0.1991 -0.6343
  269SOL    HW2  807   2.991   1.842   3.283  1.2901  0.0530  0.1796
  270SOL     OW  808   0.881   3.279   3.988 -0.0995 -0.3676 -0.4044
  270SOL    HW1  809   0.824   3.247   4.058  1.1266  2.3636  2.0805
  270SOL    HW2  810   0.968   3.246   4.012 -0.1083 -2.4766 -2.8259
  271SOL     OW  811   0.572   3.652   2.838  0.1127  0.7767 -0.0658
  271SOL    HW1  812   0.580   3.559   2.815 -1.3324  1.5851 -4.9052
  271SOL    HW2  813   0.486   3.660   2.879 -0.2456  0.1528 -0.6965
  272SOL     OW  814   2.140   1.115   1.274 -0.2596 -0.5347 -0.0647
  272SOL    HW1  815   2.058   1.076   1.246 -1.1575  2.6684 -2.5194
  272SOL    HW2  816   2.115   1.177   1.342  0.2433 -0.1080 -0.2627
  273SOL     OW  817   2.868   3.379   1.314 -0.5618  0.0202  0.2920
  273SOL    HW1  818   2.835   3.466   1.337 -0.6231  1.0033 -2.9725
  273SOL    HW2  819   2.822   3.356   1.233  0.9470 -2.1634 -0.0453
  274SOL     OW  820   3.026   2.423   3.041  0.8376  0.4830  0.6392
  274SOL    HW1  821   2.934   2.395   3.037  1.2767 -0.9613  0.0882
  274SOL    HW2  822   3.042   2.464   2.956  0.5340  1.3894  0.9982
  275SOL     OW  823   4.240   3.996   3.625  0.5624 -0.8075 -0.4155
  275SOL    HW1  824   4.232   3.902   3.640  0.8308 -0.9564 -1.1818
  275SOL    HW2  825   4.223   4.007   3.532  0.1063 -0.0393 -0.2510
  276SOL     OW  826   3.914   0.111   2.300  0.3301 -0.4265  0.1726
  276SOL    HW1  827   3.835   0.166   2.302  0.5746  0.0426 -1.6330
  276SOL    HW2  828   3.975   0.156   2.359 -0.1186  0.2188  0.1576
  277SOL     OW  829   4.238   1.463   3.824  0.1611  0.5291  0.1002
  277SOL    HW1  830   4.261   1.552   3.851  1.1617  0.7656 -1.4213
  277SOL    HW2  831   4.144   1.467   3.807  0.1618  1.2304  0.2295
  278SOL     OW  832   3.205   3.320   1.266 -0.1885  0.0443 -0.8901
  278SOL    HW1  833   3.236   3.301   1.355 -0.1204 -1.3628 -1.1980
  278SOL    HW2  834   3.112   3.343   1.278 -0.2101 -0.2438 -0.4667
  279SOL     OW  835   2.777   3.768   4.032 -0.2540  0.3019  0.0113
  279SOL    HW1  836   2.787   3.709   3.957  1.1796  0.2693  0.2023
  279SOL    HW2  837   2.862   3.765   4.077 -0.2837  2.1610  0.2841
  280SOL     OW  838   0.799   4.158   2.530  0.3571 -0.0057 -0.3385
  280SOL    HW1  839   0.824   4.084   2.586  1.4292  0.7324  0.1819
  280SOL    HW2  840   0.824   4.131   2.442 -0.2238 -0.6823 -0.3053
  281SOL     OW  841   4.316   1.963   1.350  0.1087 -0.5282 -0.5828
  281SOL    HW1  842   4.242   1.990   1.404 -1.1060 -1.3893 -1.7771
  281SOL    HW2  843   4.332   2.038   1.293  1.3423  0.3522  0.8170
  282SOL     OW  844   3.460   4.117   3.908  0.2939  0.3641  0.4903
  282SOL    HW1  845   3.415   4.038   3.938 -0.7947  0.3943 -0.9377
  282SOL    HW2  846   3.504   4.091   3.827 -1.5181  1.5507 -0.9906
  283SOL     OW  847   3.806   4.439   3.154 -0.1367  0.2321  0.6581
  283SOL    HW1  848   3.779   4.368   3.096  0.8188  0.5166 -0.1770
  283SOL    HW2  849   3.754   4.514   3.126  3.1682  1.5727 -2.8922
  284SOL     OW  850   2.639   3.843   1.078 -0.4153 -0.0116 -0.2430
  284SOL    HW1  851   2.557   3.881   1.109 -2.0716 -0.6627 -3.4091
  284SOL    HW2  852   2.706   3.907   1.103 -2.4022  2.5167 -0.9393
  285SOL     OW  853   0.920   0.457   2.984  0.5919  0.6031  0.1776
  285SOL    HW1  854   0.827   0.438   2.994  0.4349  0.6978 -0.9405
  285SOL    HW2  855   0.964   0.385   3.028 -0.0144 -0.2936 -0.6481
  286SOL     OW  856   2.120   2.898   4.008 -1.1087 -0.6170 -0.3457
  286SOL    HW1  857   2.090   2.871   4.095  3.0844  0.8662  1.7966
  286SOL    HW2  858   2.165   2.981   4.022  3.4711 -2.2945 -2.9815
  287SOL     OW  859   0.284   2.705   2.036  0.4178  0.6002  0.2653
  287SOL    HW1  860   0.253   2.698   2.126  2.4782  1.2180  1.0706
  287SOL    HW2  861   0.254   2.624   1.994  0.6866 -0.3989  1.9120
  288SOL     OW  862   3.050   0.496   1.674  0.1204  0.0337  0.7143
  288SOL    HW1  863   3.098   0.428   1.722 -1.0351 -1.3573 -0.0083
  288SOL    HW2  864   3.057   0.470   1.582 -1.5557  0.0584  0.5434
  289SOL     OW  865   0.789   1.346   1.643  0.2658  0.1957  0.3332
  289SOL    HW1  866   0.703   1.329   1.682  0.8165 -2.4791  0.5752
  289SOL    HW2  867   0.804   1.271   1.586  1.7683  1.4380 -0.9841
  290SOL     OW  868   1.259   2.182   1.962 -0.4377  0.7266 -0.5247
  290SOL    HW1  869   1.219   2.264   1.934 -0.8840  0.4969 -0.5598
  290SOL    HW2  870   1.185   2.123   1.977 -0.2727  0.9906  1.6510
  291SOL     OW  871   4.495   2.291   3.158  0.2126 -0.2630 -0.9128
  291SOL    HW1  872   4.518   2.359   3.221 -1.4384 -0.1985 -0.3452
  291SOL    HW2  873   4.418   2.326   3.112 -0.7532 -1.7762 -0.5245
  292SOL     OW  874   1.996   0.235   1.689  0.0899 -0.5817  0.1422
  292SOL    HW1  875   2.014   0.258   1.598 -0.9956  0.7512  0.2339
  292SOL    HW2  876   2.069   0.272   1.739 -0.6033  0.9729  0.0586
  293SOL     OW  877   0.080   3.781   2.101 -0.4114 -0.4227 -0.1029
  293SOL    HW1  878   0.064   3.762   2.193  0.8682  1.1194  0.4830
  293SOL    HW2  879   0.046   3.869   2.089  1.2769  0.2027 -0.5545
  294SOL     OW  880   0.463   0.097   2.793  0.1935 -0.6368  0.2350
  294SOL    HW1  881   0.543   0.076   2.744  0.2088 -0.1094  0.0282
  294SOL    HW2  882   0.443   0.017   2.842  2.0266 -0.0918  1.9500
  295SOL     OW  883   1.647   1.360   3.038  0.0042  0.2437 -0.1808
  295SOL    HW1  884   1.621   1.299   2.968 -1.5585  1.5607 -0.8109
  295SOL    HW2  885   1.567   1.373   3.089  0.8181  0.2829  1.1201
  296SOL     OW  886   2.539   3.907   4.356 -0.7759 -0.8499 -0.0910
  296SOL    HW1  887   2.529   3.995   4.321 -1.2460 -0.4609  0.9793
  296SOL    HW2  888   2.590   3.860   4.290 -0.6170  0.1861 -0.7199
  297SOL     OW  889   4.321   2.522   1.199  0.2707  0.4183  0.0994
  297SOL    HW1  890   4.273   2.510   1.281  1.0983  1.4411  0.7632
  297SOL    HW2  891   4.274   2.592   1.154  0.2308  0.3433  0.0241
  298SOL     OW  892   0.870   2.523   3.900  0.1839  0.0295  0.6121
  298SOL    HW1  893   0.839   2.434   3.919 -0.1920 -0.1310 -0.6436
  298SOL    HW2  894   0.802   2.560   3.843  2.4611 -0.5418 -2.7827
  299SOL     OW  895   1.501   3.853   2.529  0.2572 -0.1833 -0.1593
  299SOL    HW1  896   1.491   3.760   2.551  0.7185 -0.1851  0.0561
  299SOL    HW2  897   1.423   3.895   2.565  2.2189  0.2717  4.1221
  300SOL     OW  898   3.482   1.974   2.052  0.1340 -0.3310  0.1372
  300SOL    HW1  899   3.566   1.995   2.092 -0.2218  1.6417 -0.0193
  300SOL    HW2  900   3.417   2.006   2.115 -0.5364 -2.0919  0.3960
  301SOL     OW  901   1.011   0.058   0.239 -0.2153  0.4893 -0.6974
  301SOL    HW1  902   1.106   0.048   0.233 -0.4134 -1.0771 -2.0153
  301SOL    HW2  903   0.979  -0.030   0.256 -1.4992  0.7568 -1.5981
  302SOL     OW  904   4.404   2.507   1.677  0.6056  0.0834  0.0749
  302SOL    HW1  905   4.411   2.412   1.686  0.6123 -0.0060 -0.7847
  302SOL    HW2  906   4.476   2.531   1.618 -0.3963  0.4013 -1.0611
  303SOL     OW  907   0.708   2.539   3.573 -0.1170  0.0471 -0.4230
  303SOL    HW1  908   0.760   2.600   3.625  0.5139 -0.9054  0.1020
  303SOL    HW2  909   0.672   2.478   3.637  2.4081 -2.4640 -1.1572
  304SOL     OW  910   1.499   3.621   1.367  0.8674  0.5733 -0.1582
  304SOL    HW1  911   1.423   3.666   1.404 -0.5145  0.0276 -2.1605
  304SOL    HW2  912   1.476   3.528   1.370  0.2085  0.5442 -3.1426
  305SOL     OW  913   3.230   1.352   1.379 -0.8793 -0.2511  0.2312
  305SOL    HW1  914   3.302   1.399   1.423 -1.9627  0.7120  1.0372
  305SOL    HW2  915   3.248   1.260   1.397 -0.9204  0.0759  2.1835
  306SOL     OW  916   0.563   3.325   2.750 -0.6108  0.1103 -0.1246
  306SOL    HW1  917   0.484   3.376   2.734 -1.0292 -1.0020 -1.8919
  306SOL    HW2  918   0.593   3.298   2.663  0.6569 -1.0611  0.6257
  307SOL     OW  919   1.212   1.996   2.223  0.1835  0.3972 -0.4781
  307SOL    HW1  920   1.293   2.044   2.243  0.2088  0.4617 -0.7311
  307SOL    HW2  921   1.149   2.027   2.288  0.9019 -1.1226  0.9987
  308SOL     OW  922   0.927   1.656   4.350 -0.3984  0.0903  0.2275
  308SOL    HW1  923   0.853   1.695   4.303 -0.2119 -0.9780 -1.0128
  308SOL    HW2  924   0.887   1.615   4.427 -0.4599  3.6233  2.2963
  309SOL     OW  925   3.151   1.954   0.283  0.2961 -0.2713  0.0085
  309SOL    HW1  926   3.245   1.972   0.290  0.5599 -0.9863 -1.3684
  309SOL    HW2  927   3.146   1.868   0.243 -0.9644 -0.4196  0.4419
  310SOL     OW  928   0.970   3.607   3.462  0.3185  0.0285 -0.6928
  310SOL    HW1  929   1.061   3.619   3.486  0.2682 -0.2944 -0.3257
  310SOL    HW2  930   0.960   3.654   3.379  0.5740  0.8914 -0.2476
  311SOL     OW  931   3.581   3.278   1.661  0.0358 -0.1700  0.3917
  311SOL    HW1  932   3.536   3.289   1.745 -1.6696 -0.9215 -0.3661
  311SOL    HW2  933   3.617   3.189   1.665  0.0891 -0.1487  0.3857
  312SOL     OW  934   2.385   0.486   1.237  0.2879  0.3707  0.3867
  312SOL    HW1  935   2.309   0.534   1.270  0.5848  1.5056 -0.5014
  312SOL    HW2  936   2.410   0.428   1.308 -1.7418 -0.4362  0.5029
  313SOL     OW  937   0.057   2.512   3.334 -0.2419 -0.2432  0.5016
  313SOL    HW1  938   0.042   2.556   3.418 -1.8545  0.6490 -0.2137
  313SOL    HW2  939   0.142   2.546   3.305  0.1903 -0.3207  1.6064
  314SOL     OW  940   4.306   0.771   2.990 -0.2066  0.6538  1.0054
  314SOL    HW1  941   4.238   0.807   2.933 -0.9078 -0.1108  1.3464
  314SOL    HW2  942   4.259   0.719   3.054  0.5835  1.3281  2.1816
  315SOL     OW  943   3.919   1.794   3.661  0.3662  0.2505  0.9978
  315SOL    HW1  944   3.847   1.830   3.609  1.2911  0.9728  0.1616
  315SOL    HW2  945   3.995   1.800   3.603  0.8985 -1.4906  1.4780
  316SOL     OW  946   1.198   3.314   2.478  0.0639  0.0106 -0.2598
  316SOL    HW1  947   1.116   3.265   2.486 -0.1786  0.3824 -0.4328
  316SOL    HW2  948   1.266   3.250   2.499 -0.3414  0.0413  1.2710
  317SOL     OW  949   3.673   1.034   1.680 -0.7713  0.1575  0.4757
  317SOL    HW1  950   3.641   1.034   1.590  0.3822 -0.4194  0.0373
  317SOL    HW2  951   3.618   0.970   1.725 -0.6990 -0.3068 -0.0838
  318SOL     OW  952   4.378   1.458   2.609 -0.7749 -0.1300 -0.2301
  318SOL    HW1  953   4.434   1.427   2.679  0.0710  3.2927  0.8323
  318SOL    HW2  954   4.311   1.510   2.653 -2.4062 -0.8264 -1.7671
  319SOL     OW  955   3.772   1.965   3.468 -0.4909  0.8105 -0.0603
  319SOL    HW1  956   3.757   1.912   3.389 -0.4633  0.7201 -0.0040
  319SOL    HW2  957   3.699   1.943   3.526 -1.7119  2.4477 -0.8976
  320SOL     OW  958   3.613   1.320   1.412  0.1823 -0.7233  0.1928
  320SOL    HW1  959   3.635   1.227   1.411  0.7906 -0.5788 -0.1708
  320SOL    HW2  960   3.680   1.361   1.358 -0.8004 -0.2307 -0.6947
  321SOL     OW  961   2.344   1.731   3.043 -0.0786  0.1705  0.1914
  321SOL    HW1  962   2.365   1.745   2.951  0.0980 -1.2158  0.0036
  321SOL    HW2  963   2.268   1.673   3.042 -2.4073  2.9831  0.9050
  322SOL     OW  964   3.080   1.931   4.149  0.2907  0.2983  0.2007
  322SOL    HW1  965   3.005   1.887   4.189  0.3981  0.6668  0.8210
  322SOL    HW2  966   3.141   1.859   4.129 -0.3618 -0.0439 -0.6442
  323SOL     OW  967   3.796   3.755   1.502  0.2390 -0.4995  0.0804
  323SOL    HW1  968   3.726   3.816   1.526  0.2703 -1.2289  2.2489
  323SOL    HW2  969   3.751   3.674   1.480  0.3076 -0.3687 -0.5470
  324SOL     OW  970   4.220   0.145   1.180 -0.2699 -0.1026  0.4370
  324SOL    HW1  971   4.226   0.177   1.270 -0.4946 -0.1111  0.4567
  324SOL    HW2  972   4.308   0.156   1.145  0.0930 -1.0744  0.9829
  325SOL     OW  973   4.084   1.170   3.526  0.4589  0.4017 -0.2259
  325SOL    HW1  974   4.055   1.114   3.454  0.9583  2.2274 -1.9238
  325SOL    HW2  975   4.125   1.109   3.588 -1.8441 -1.4957 -0.4163
  326SOL     OW  976   0.707   2.915   3.518 -0.5117  1.0339 -0.1854
  326SOL    HW1  977   0.680   2.948   3.603 -0.1585 -1.1354  0.8288
  326SOL    HW2  978   0.786   2.864   3.535 -0.9253 -0.1880 -1.6438
  327SOL     OW  979   0.296   3.390   1.866  0.1516 -0.2714 -0.4236
  327SOL    HW1  980   0.279   3.469   1.917  2.0121 -0.3049  0.3470
  327SOL    HW2  981   0.347   3.421   1.791 -0.2218 -0.5854 -0.8121
  328SOL     OW  982   3.538   3.101   2.713  0.2792 -0.0336  0.0891
  328SOL    HW1  983   3.509   3.187   2.744 -0.3734 -0.5393  0.9348
  328SOL    HW2  984   3.557   3.115   2.620 -1.0531  0.7473 -0.1026
  329SOL     OW  985   2.872   3.998   1.067  0.0024  0.0890 -0.4971
  329SOL    HW1  986   2.958   3.965   1.093 -0.2092 -1.1490 -1.3194
  329SOL    HW2  987   2.887   4.043   0.984 -0.0072  0.6614 -0.1995
  330SOL     OW  988   4.173   0.261   2.463  0.3113  0.0092 -0.7339
  330SOL    HW1  989   4.250   0.309   2.495  0.5353 -0.4294 -0.6019
  330SOL    HW2  990   4.202   0.169   2.460  0.1804 -0.0053 -1.8524
  331SOL     OW  991   3.672   3.481   1.866 -0.1579  0.1291  0.3810
  331SOL    HW1  992   3.683   3.413   1.932  1.0072 -0.2833 -0.2198
  331SOL    HW2  993   3.759   3.496   1.831 -0.4113  1.7848  0.3308
  332SOL     OW  994   2.538   1.024   2.077 -0.5392  0.2902  0.3755
  332SOL    HW1  995   2.531   0.984   2.163 -0.1021  0.0941  0.3227
  332SOL    HW2  996   2.524   1.117   2.092  1.4068  0.5400  0.9566
  333SOL     OW  997   3.577   0.984   1.998 -0.1422 -0.0465 -0.0676
  333SOL    HW1  998   3.525   0.990   2.078 -0.2279  0.8580 -0.1901
  333SOL    HW2  999   3.613   1.071   1.985  0.4678 -0.3696 -0.6252
  334SOL     OW 1000   0.587   3.860   1.971 -0.3529 -0.6463  0.0597
  334SOL    HW1 1001   0.558   3.856   2.063  0.0881 -1.7665  0.1730
  334SOL    HW2 1002   0.668   3.808   1.970  0.8765  1.2014 -0.5347
  335SOL     OW 1003   0.386   1.063   0.893  0.0774  0.0439  0.0858
  335SOL    HW1 1004   0.366   1.044   0.984  1.6162  1.8470  0.8608
  335SOL    HW2 1005   0.457   1.127   0.896  1.0395 -0.7648 -2.3902
  336SOL     OW 1006   2.221   0.956   3.082 -0.1533  0.1566  0.0585
  336SOL    HW1 1007   2.188   1.034   3.127 -0.7051  0.4389 -0.8004
  336SOL    HW2 1008   2.203   0.974   2.989  1.0486 -0.3569 -0.2828
  337SOL     OW 1009   3.089   4.010   4.201 -0.0691  0.3957  0.3409
  337SOL    HW1 1010   3.148   4.027   4.127  0.5876 -0.2564  0.6967
  337SOL    HW2 1011   3.069   3.917   4.194  0.7798  0.1004  1.5191
  338SOL     OW 1012   2.927   0.895   1.865  0.7472  0.2937  0.1195
  338SOL    HW1 1013   2.985   0.968   1.885 -0.1779  0.8973  0.7053
  338SOL    HW2 1014   2.952   0.868   1.776  0.8607  1.5661 -0.2560
  339SOL     OW 1015   1.174   2.431   3.706  0.4242 -0.2398 -0.0933
  339SOL    HW1 1016   1.194   2.468   3.620  1.8819  0.6179  0.5896
  339SOL    HW2 1017   1.139   2.504   3.757  0.2568 -0.5738  0.2825
  340SOL     OW 1018   2.623   2.721   3.941 -0.6030 -0.0921  0.4706
  340SOL    HW1 1019   2.628   2.704   3.847  0.1278 -0.6532  0.6056
  340SOL    HW2 1020   2.601   2.636   3.979 -1.4101  0.2426  0.7721
  341SOL     OW 1021   2.136   4.447   2.089  0.2583  0.1696  0.2828
  341SOL    HW1 1022   2.052   4.402   2.092 -1.5719  3.1983 -0.7305
  341SOL    HW2 1023   2.162   4.444   1.997  1.8636 -1.6130  0.7367
  342SOL     OW 1024   1.009   1.597   0.279 -0.4993 -0.2294  0.0794
  342SOL    HW1 1025   0.986   1.535   0.210 -1.2363 -1.0702  1.0482
  342SOL    HW2 1026   1.091   1.562   0.315 -0.0907  0.2341 -0.3824
  343SOL     OW 1027   0.601   2.357   3.737  0.5540 -0.1601  0.1167
  343SOL    HW1 1028   0.615   2.267   3.766 -0.4447 -0.6306 -0.8075
  343SOL    HW2 1029   0.516   2.356   3.693  0.5637  1.2189  0.0023
  344SOL     OW 1030   1.668   2.513   3.249 -0.1570  0.5208 -0.2350
  344SOL    HW1 1031   1.760   2.488   3.263 -0.1664  0.5844 -0.0701
  344SOL    HW2 1032   1.618   2.454   3.305 -0.2848 -0.2144 -1.0911
  345SOL     OW 1033   0.646   0.915   3.583  0.2928  0.3328 -0.2834
  345SOL    HW1 1034   0.740   0.918   3.567  0.1393  2.3698 -1.1410
  345SOL    HW2 1035   0.636   0.936   3.676  0.7080 -0.6824 -0.0046
  346SOL     OW 1036   2.051   0.811   2.479 -0.1965 -0.0711 -0.1058
  346SOL    HW1 1037   2.132   0.860   2.489 -1.2108  2.1283 -1.7685
  346SOL    HW2 1038   2.001   0.831   2.559  0.9418 -1.6807  1.0652
  347SOL     OW 1039   1.355   2.293   3.886  0.1314 -0.2412 -0.4703
  347SOL    HW1 1040   1.307   2.251   3.957 -1.9694 -1.8496 -2.6884
  347SOL    HW2 1041   1.300   2.366   3.860  0.3322 -0.3325 -1.1602
  348SOL     OW 1042   4.010   0.950   1.789 -0.0403  0.0707  0.6697
  348SOL    HW1 1043   4.073   0.887   1.755  1.0657  1.2080  0.5351
  348SOL    HW2 1044   3.931   0.936   1.736  0.6289 -0.2929 -0.2652
  349SOL     OW 1045   2.856   0.022   1.800  0.5688  0.5112  0.1764
  349SOL    HW1 1046   2.932  -0.034   1.784  0.8844  1.2457 -1.0398
  349SOL    HW2 1047   2.862   0.090   1.733 -1.0960  0.6568  0.1393
  350SOL     OW 1048   2.342   1.336   4.434 -0.3078  0.7252  0.2457
  350SOL    HW1 1049   2.379   1.394   4.367 -0.5707 -0.2192 -0.7581
  350SOL    HW2 1050   2.255   1.313   4.399  0.0773 -0.8408  0.2572
  351SOL     OW 1051   4.087   2.964   2.604 -0.2737 -0.6332 -0.0575
  351SOL    HW1 1052   4.074   3.055   2.630  1.0302 -0.9285  1.8681
  351SOL    HW2 1053   4.068   2.962   2.510  0.6889  1.8428 -0.3754
  352SOL     OW 1054   2.644   3.166   1.310  0.1675  0.0840 -0.1871
  352SOL    HW1 1055   2.666   3.194   1.221 -0.3979 -0.1790 -0.4071
  352SOL    HW2 1056   2.554   3.135   1.305  0.1376  0.0427  0.4730
  353SOL     OW 1057   4.038   1.854   0.640  0.0282  0.1825 -0.3595
  353SOL    HW1 1058   4.065   1.786   0.578 -0.4005  0.5664 -0.9906
  353SOL    HW2 1059   4.118   1.881   0.684  0.0275 -1.5755  0.7788
  354SOL     OW 1060   4.149   1.786   2.880 -0.6161  0.2036 -0.0283
  354SOL    HW1 1061   4.216   1.753   2.940  1.2635  1.0899 -1.5330
  354SOL    HW2 1062   4.149   1.881   2.895 -2.2995  0.1331  0.6448
  355SOL     OW 1063   1.583   0.231   0.333 -0.1079  0.0209  0.1413
  355SOL    HW1 1064   1.587   0.201   0.243  2.1976  0.2353  0.1178
  355SOL    HW2 1065   1.673   0.224   0.365 -0.9184 -0.3580  2.5390
  356SOL     OW 1066   0.556   4.085   3.382 -0.9737 -0.1734  0.1449
  356SOL    HW1 1067   0.511   4.035   3.314  0.6972  0.4141 -1.4905
  356SOL    HW2 1068   0.605   4.019   3.431  0.3868 -0.3260 -1.3357
  357SOL     OW 1069   2.367   1.774   4.337 -0.1577  0.7435 -0.5098
  357SOL    HW1 1070   2.367   1.725   4.420 -2.0780  1.8499  0.2244
  357SOL    HW2 1071   2.278   1.763   4.304  0.7991 -0.3662 -2.9201
  358SOL     OW 1072   0.570   1.740   1.256  0.7438  0.1079  0.0058
  358SOL    HW1 1073   0.546   1.826   1.291  1.1661  0.5115 -0.6657
  358SOL    HW2 1074   0.649   1.716   1.304  0.3053 -0.1728  0.5974
  359SOL     OW 1075   3.897   2.640   1.907 -0.2323  0.7284 -0.4569
  359SOL    HW1 1076   3.979   2.635   1.857 -0.2901 -2.9162 -0.4595
  359SOL    HW2 1077   3.924   2.651   1.998  0.4431 -1.4516 -0.3260
  360SOL     OW 1078   2.175   2.895   0.704  0.1219 -0.2517  0.1360
  360SOL    HW1 1079   2.140   2.807   0.713 -0.6111 -0.0935 -0.9438
  360SOL    HW2 1080   2.268   2.883   0.687  0.2845 -0.7548  1.2997
  361SOL     OW 1081   0.120   3.942   1.463  0.4038  0.1008 -0.0139
  361SOL    HW1 1082   0.028   3.968   1.461  0.2452 -0.3079  1.2797
  361SOL    HW2 1083   0.120   3.856   1.503  1.3541  0.0708 -0.0473
  362SOL     OW 1084   4.496   2.647   0.717  0.0939 -0.3073 -0.8823
  362SOL    HW1 1085   4.413   2.618   0.756  0.8091 -0.3300  0.6961
  362SOL    HW2 1086   4.541   2.566   0.692  0.1459 -0.3473 -0.6585
  363SOL     OW 1087   1.335   2.403   4.446 -0.3363  0.0384  0.4774
  363SOL    HW1 1088   1.268   2.351   4.490 -3.4533  2.8168 -0.6160
  363SOL    HW2 1089   1.399   2.423   4.514 -1.6809 -0.9815  2.1023
  364SOL     OW 1090   2.792   2.590   1.663 -0.1892  0.2036 -0.0869
  364SOL    HW1 1091   2.853   2.537   1.613 -0.2849  1.3303 -1.4482
  364SOL    HW2 1092   2.821   2.581   1.754  0.8335 -0.7717 -0.4963
  365SOL     OW 1093   1.991   2.724   2.295  0.2497 -0.0320 -0.0361
  365SOL    HW1 1094   1.979   2.765   2.381  2.3914 -0.0853  0.3270
  365SOL    HW2 1095   2.050   2.651   2.311 -0.3375 -0.8290 -1.3676
  366SOL     OW 1096   3.035   2.983   2.716 -0.1321 -0.1826  0.2719
  366SOL    HW1 1097   3.054   3.052   2.780 -0.2900  0.8999 -0.8165
  366SOL    HW2 1098   3.121   2.949   2.691 -0.0692 -0.6389  1.0647
  367SOL     OW 1099   0.811   2.243   1.750  0.1096  0.4429  0.2114
  367SOL    HW1 1100   0.749   2.239   1.823  0.1542  1.2756  0.3112
  367SOL    HW2 1101   0.798   2.161   1.702 -0.8779  0.4845  0.3907
  368SOL     OW 1102   0.758   3.501   2.397 -0.0674 -0.0450 -0.3156
  368SOL    HW1 1103   0.740   3.538   2.484 -1.9987 -0.7326 -0.3760
  368SOL    HW2 1104   0.684   3.529   2.344  0.1298 -1.2289 -1.2411
  369SOL     OW 1105   4.333   1.744   3.938 -0.0658  0.5217  0.0969
  369SOL    HW1 1106   4.304   1.765   4.027  0.8152  1.7532  0.1269
  369SOL    HW2 1107   4.408   1.802   3.924 -0.4420  0.6319 -1.5977
  370SOL     OW 1108   3.618   0.457   2.980 -1.1666 -0.5102  0.2624
  370SOL    HW1 1109   3.644   0.542   3.014 -0.1016 -1.4999  2.1088
  370SOL    HW2 1110   3.613   0.469   2.885  4.7962  0.2736 -0.3282
  371SOL     OW 1111   1.160   0.664   0.065  0.2628 -0.8341 -0.1682
  371SOL    HW1 1112   1.075   0.626   0.088 -0.0242 -1.0321 -1.4610
  371SOL    HW2 1113   1.216   0.588   0.049  0.2833 -0.7195 -0.6697
  372SOL     OW 1114   1.662   3.821   3.808  0.2374  0.3649 -0.2404
  372SOL    HW1 1115   1.629   3.813   3.898  0.2540 -0.9622 -0.3328
  372SOL    HW2 1116   1.681   3.914   3.798  0.6803  0.4678  1.2865
  373SOL     OW 1117   1.403   2.978   2.066  0.4582  0.1020 -0.0263
  373SOL    HW1 1118   1.378   3.065   2.096 -2.0822 -0.4207 -0.3603
  373SOL    HW2 1119   1.494   2.986   2.040  0.6352  2.3368  1.0933
  374SOL     OW 1120   2.514   1.374   2.182 -0.0323 -0.4376  0.3614
  374SOL    HW1 1121   2.494   1.467   2.195  0.6569 -0.2231 -0.0579
  374SOL    HW2 1122   2.609   1.372   2.168 -0.0576 -1.1956  0.2913
  375SOL     OW 1123   1.694   0.651   4.441 -0.4066 -0.0238  0.3070
  375SOL    HW1 1124   1.711   0.623   4.351  0.3012 -0.1969  0.4912
  375SOL    HW2 1125   1.632   0.585   4.475  1.1368 -1.3280  0.6924
  376SOL     OW 1126   1.889   2.760   3.755  0.5840  0.1646 -0.0662
  376SOL    HW1 1127   1.953   2.780   3.686  0.2633  0.0786 -0.3921
  376SOL    HW2 1128   1.815   2.723   3.708  1.1772 -1.8837  0.5051
  377SOL     OW 1129   0.898   2.044   1.454  0.0432 -0.2633  0.3384
  377SOL    HW1 1130   0.935   1.989   1.385 -0.0602 -2.0481  1.6047
  377SOL    HW2 1131   0.856   1.981   1.514  0.1536  1.1842  2.0320
  378SOL     OW 1132   1.629   0.315   3.855 -0.0635 -0.4850  0.5012
  378SOL    HW1 1133   1.616   0.375   3.929 -1.5906 -1.2406  0.8737
  378SOL    HW2 1134   1.717   0.335   3.824 -0.5944  2.0872  0.4708
  379SOL     OW 1135   1.420   0.902   3.058  0.2996  0.7720 -0.4113
  379SOL    HW1 1136   1.403   0.971   2.994 -3.4878  0.7975  0.3836
  379SOL    HW2 1137   1.444   0.949   3.138 -0.0184  1.0565 -0.4781
  380SOL     OW 1138   0.676   3.520   1.729 -0.2058 -0.2268 -0.1710
  380SOL    HW1 1139   0.678   3.615   1.739 -1.6549 -0.3216  1.4518
  380SOL    HW2 1140   0.699   3.486   1.815 -0.1948 -1.3471 -0.5932
  381SOL     OW 1141   0.699   3.798   1.685  0.1909  0.1379 -0.2459
  381SOL    HW1 1142   0.729   3.886   1.661  2.3763  0.4061  2.7298
  381SOL    HW2 1143   0.616   3.813   1.731  0.8373  0.7920  0.7642
  382SOL     OW 1144   0.056   2.217   1.465 -0.3534  0.1796  0.4224
  382SOL    HW1 1145  -0.036   2.193   1.481 -0.4448  0.3942  0.2232
  382SOL    HW2 1146   0.057   2.250   1.375 -0.1091  0.3294  0.4787
  383SOL     OW 1147   1.221   2.613   3.492 -0.1176  0.1372 -0.2425
  383SOL    HW1 1148   1.290   2.647   3.435  1.0652 -0.9716  0.4819
  383SOL    HW2 1149   1.171   2.690   3.518 -1.0678  0.6488 -3.1741
  384SOL     OW 1150   2.775   0.422   4.333 -0.3449 -0.3342  0.3701
  384SOL    HW1 1151   2.753   0.332   4.307 -0.3757 -0.7961  1.8942
  384SOL    HW2 1152   2.713   0.442   4.403  0.6148  0.3313  1.0400
  385SOL     OW 1153   0.185   0.800   3.560  0.0740 -0.1260 -0.3461
  385SOL    HW1 1154   0.278   0.791   3.582 -0.0577 -1.3601 -0.1930
  385SOL    HW2 1155   0.165   0.892   3.576  0.8277 -0.2229  1.4357
  386SOL     OW 1156   2.290   3.495   1.841 -0.4775 -0.4457 -0.2823
  386SOL    HW1 1157   2.211   3.474   1.890 -1.0650  0.6361 -0.7438
  386SOL    HW2 1158   2.318   3.580   1.876 -0.7712  0.2299 -1.6316
  387SOL     OW 1159   0.417   1.681   3.615 -0.2729 -0.3899 -0.6276
  387SOL    HW1 1160   0.416   1.662   3.709 -0.4743 -1.3081 -0.8042
  387SOL    HW2 1161   0.326   1.672   3.588 -0.4342  1.1543 -0.6813
  388SOL     OW 1162   0.627   1.574   2.569  0.0909 -0.2283  0.7667
  388SOL    HW1 1163   0.582   1.633   2.509  0.6981 -0.9278 -0.4234
  388SOL    HW2 1164   0.558   1.538   2.624 -0.2965  1.4809  1.4544
  389SOL     OW 1165   2.588   0.026   4.385  0.1824 -0.1928  0.1844
  389SOL    HW1 1166   2.494   0.005   4.384  0.6860 -3.3558  2.4839
  389SOL    HW2 1167   2.615   0.018   4.294 -1.5125 -0.7809 -0.3063
  390SOL     OW 1168   0.384   0.743   2.784 -0.0697  0.5236 -0.3518
  390SOL    HW1 1169   0.414   0.823   2.741 -0.6189  1.0407  0.1986
  390SOL    HW2 1170   0.354   0.687   2.713 -0.9112  1.3368 -0.6651
  391SOL     OW 1171   3.288   0.688   2.915 -0.3477 -0.1154 -0.4198
  391SOL    HW1 1172   3.276   0.623   2.845 -2.2947 -0.1887 -0.0865
  391SOL    HW2 1173   3.311   0.636   2.992  0.6221 -0.1502 -0.7265
  392SOL     OW 1174   0.027   4.138   0.143  0.3607 -0.0018 -0.0835
  392SOL    HW1 1175   0.056   4.224   0.172  1.0947 -0.8308  1.8275
  392SOL    HW2 1176  -0.053   4.122   0.193  1.8788 -1.6429  2.0368
  393SOL     OW 1177   2.477   3.704   2.466  0.2009  0.0849  0.2994
  393SOL    HW1 1178   2.462   3.780   2.410  1.8123 -0.1546 -0.5022
  393SOL    HW2 1179   2.465   3.629   2.409 -0.6462 -0.2613  0.9103
  394SOL     OW 1180   3.380   0.530   4.198  0.0911 -0.1950  0.2441
  394SOL    HW1 1181   3.348   0.515   4.286  0.9699 -0.8141  0.4716
  394SOL    HW2 1182   3.304   0.515   4.141 -0.2619 -0.6229  0.8308
  395SOL     OW 1183   1.836   1.144   2.271  0.5249  0.3917  0.1592
  395SOL    HW1 1184   1.840   1.197   2.191  3.2370 -0.6656 -0.5123
  395SOL    HW2 1185   1.868   1.058   2.244 -0.1656 -0.5194  2.0487
  396SOL     OW 1186   3.241   0.929   0.721  0.1332 -0.4165  0.2379
  396SOL    HW1 1187   3.246   0.859   0.655  0.1363 -1.5308  1.3659
  396SOL    HW2 1188   3.206   1.004   0.674  1.5507 -0.7097 -1.3804
  397SOL     OW 1189   3.191   1.545   4.418 -0.4426 -0.1072  0.1492
  397SOL    HW1 1190   3.232   1.481   4.360  1.7091 -0.6131  2.0398
  397SOL    HW2 1191   3.099   1.546   4.393 -0.0616 -2.0731 -1.5848
  398SOL     OW 1192   0.612   1.531   0.536  0.3366  0.2939 -0.1351
  398SOL    HW1 1193   0.594   1.588   0.611 -1.8792 -0.1796 -0.2521
  398SOL    HW2 1194   0.631   1.446   0.576  1.5906  0.5981 -0.0457
  399SOL     OW 1195   2.454   4.406   0.815  0.2345  0.2492 -0.4974
  399SOL    HW1 1196   2.498   4.468   0.757  1.4870 -0.4649 -0.3478
  399SOL    HW2 1197   2.515   4.333   0.824 -1.7041 -1.6561 -1.7090
  400SOL     OW 1198   0.579   4.102   1.286 -0.1207 -0.1572 -0.4485
  400SOL    HW1 1199   0.636   4.030   1.314  0.2357  1.5477  4.1019
  400SOL    HW2 1200   0.491   4.066   1.293  0.0639 -0.3593  1.5197
  401SOL     OW 1201   3.586   2.668   3.107 -0.2345 -0.4937  0.3479
  401SOL    HW1 1202   3.493   2.668   3.130 -0.5792 -1.4375 -0.9386
  401SOL    HW2 1203   3.589   2.705   3.019  0.7467  0.4625  0.7539
  402SOL     OW 1204   2.634   0.890   2.277  0.2855 -0.2727  0.4647
  402SOL    HW1 1205   2.703   0.854   2.221  0.5770  0.2093  0.5062
  402SOL    HW2 1206   2.588   0.813   2.312 -0.3031 -0.5719 -0.9245
  403SOL     OW 1207   4.199   0.027   0.812  0.3810  0.0565 -0.2503
  403SOL    HW1 1208   4.245   0.040   0.729 -1.1868 -0.9347 -1.3525
  403SOL    HW2 1209   4.142   0.103   0.820 -0.7951 -0.7061 -1.0589
  404SOL     OW 1210   2.014   0.586   2.829  0.3618 -0.2324 -0.0667
  404SOL    HW1 1211   2.055   0.672   2.838 -1.8808  0.8781  0.0686
  404SOL    HW2 1212   2.028   0.544   2.914 -1.8285  1.5740  1.2923
  405SOL     OW 1213   1.214   0.371   4.351 -0.3127  0.4426  0.7022
  405SOL    HW1 1214   1.228   0.438   4.284 -0.8855 -0.6927 -0.5854
  405SOL    HW2 1215   1.176   0.297   4.304 -0.1217 -0.6318  2.1721
  406SOL     OW 1216   3.878   1.242   2.372 -0.3679  0.1356 -0.0935
  406SOL    HW1 1217   3.789   1.216   2.350 -0.1627  1.2781 -2.6602
  406SOL    HW2 1218   3.873   1.274   2.462 -1.6806 -3.4029  1.2556
  407SOL     OW 1219   0.760   2.752   0.613  0.3563  0.0778 -0.2349
  407SOL    HW1 1220   0.701   2.828   0.617  0.7544  0.3898 -0.2411
  407SOL    HW2 1221   0.734   2.698   0.688  0.5954  0.6066  0.2320
  408SOL     OW 1222   4.133   2.359   2.241  0.3052  0.3642  0.3846
  408SOL    HW1 1223   4.161   2.267   2.242  1.4046  0.6799  0.5784
  408SOL    HW2 1224   4.040   2.355   2.219  0.5411 -0.7454 -0.5720
  409SOL     OW 1225   1.720   1.295   0.377  0.3567  0.3585 -0.4147
  409SOL    HW1 1226   1.683   1.241   0.307  0.3416 -0.1014 -0.0516
  409SOL    HW2 1227   1.648   1.307   0.439  0.0459  1.6583 -0.9813
  410SOL     OW 1228   4.092   0.582   1.221  0.2652 -0.2634 -0.3139
  410SOL    HW1 1229   4.169   0.537   1.187 -0.2444 -0.6782 -0.9294
  410SOL    HW2 1230   4.019   0.521   1.207  0.1450 -0.9022  2.3987
  411SOL     OW 1231   1.111   1.231   4.186 -0.2491  0.6349  0.2935
  411SOL    HW1 1232   1.197   1.190   4.199 -0.7211 -0.7797 -0.7856
  411SOL    HW2 1233   1.131   1.322   4.165  1.1063 -0.0288 -1.5867
  412SOL     OW 1234   4.203   3.865   0.917 -0.4105 -0.2624 -0.3633
  412SOL    HW1 1235   4.267   3.930   0.888 -1.7707  1.2792 -0.0410
  412SOL    HW2 1236   4.253   3.783   0.921  1.1911  0.5940 -1.4528
  413SOL     OW 1237   0.241   0.370   1.756 -0.3828 -0.0443 -0.0844
  413SOL    HW1 1238   0.273   0.334   1.673  0.8012  2.6544 -0.9200
  413SOL    HW2 1239   0.319   0.374   1.812 -0.6814  0.3891  0.3093
  414SOL     OW 1240   0.745   1.927   3.352  0.4253  0.3549 -0.2616
  414SOL    HW1 1241   0.674   1.967   3.302 -0.1036  0.3765  0.4909
  414SOL    HW2 1242   0.707   1.846   3.386  0.4080  0.9012  1.0460
  415SOL     OW 1243   3.762   2.195   2.868 -0.1103  0.2542 -0.4139
  415SOL    HW1 1244   3.689   2.194   2.806 -0.2584  0.6227 -0.2457
  415SOL    HW2 1245   3.724   2.169   2.952 -0.0883  0.6412 -0.2830
  416SOL     OW 1246   2.918   1.765   1.466 -0.5974  0.5898 -0.1078
  416SOL    HW1 1247   2.927   1.777   1.371  1.6855 -2.4871 -0.4375
  416SOL    HW2 1248   2.991   1.814   1.504  1.4273 -1.9549 -0.4573
  417SOL     OW 1249   2.424   1.456   0.618 -0.4971  0.1090 -0.1030
  417SOL    HW1 1250   2.451   1.427   0.705 -0.5662 -0.1268 -0.1605
  417SOL    HW2 1251   2.465   1.542   0.607 -1.1635  0.5155  0.4986
  418SOL     OW 1252   3.126   3.733   0.275  0.2465 -0.2091 -0.8201
  418SOL    HW1 1253   3.150   3.807   0.220  0.8082  0.5549  0.4129
  418SOL    HW2 1254   3.091   3.772   0.355  0.7562 -1.2598 -0.0481
  419SOL     OW 1255   1.055   2.341   1.786 -0.1611 -0.3844  0.3279
  419SOL    HW1 1256   1.098   2.325   1.701 -0.3856 -0.3128  0.2017
  419SOL    HW2 1257   0.964   2.314   1.772 -1.2525  3.2101 -0.6610
  420SOL     OW 1258   1.809   1.096   3.199 -0.9783 -0.4275  0.5324
  420SOL    HW1 1259   1.767   1.084   3.114 -1.3554 -0.8281  0.7693
  420SOL    HW2 1260   1.903   1.093   3.181 -1.0467  0.5918 -0.0191
  421SOL     OW 1261   1.904   4.003   3.997  0.8319  0.2518 -0.3959
  421SOL    HW1 1262   1.915   3.935   3.931  0.6576 -0.5998  0.4200
  421SOL    HW2 1263   1.941   4.081   3.958 -1.1839  0.3213 -2.3536
  422SOL     OW 1264   2.136   1.884   2.611 -0.4499  0.1681  0.5824
  422SOL    HW1 1265   2.106   1.842   2.531 -0.1136  0.6281  0.2087
  422SOL    HW2 1266   2.155   1.974   2.585 -2.8771  1.0963  1.7347
  423SOL     OW 1267   4.362   3.125   1.188  0.2926 -0.6674  0.7695
  423SOL    HW1 1268   4.304   3.059   1.226 -0.9309 -0.5578 -0.7829
  423SOL    HW2 1269   4.434   3.076   1.150 -0.6549 -1.1667 -0.4533
  424SOL     OW 1270   3.813   0.940   2.172  0.6086 -0.5830  0.1812
  424SOL    HW1 1271   3.752   0.944   2.099 -0.0389  0.5503  0.7634
  424SOL    HW2 1272   3.870   1.016   2.161  0.1630 -0.0987  1.1392
  425SOL     OW 1273   0.171   2.460   1.995  0.3099  0.5879  0.1496
  425SOL    HW1 1274   0.240   2.417   1.944  1.0604  3.1549 -1.1710
  425SOL    HW2 1275   0.148   2.396   2.062  2.8805 -0.9729 -0.2992
  426SOL     OW 1276   4.368   1.658   1.817 -0.2661  0.0791 -0.2003
  426SOL    HW1 1277   4.348   1.698   1.732 -1.1807  0.9461  0.4009
  426SOL    HW2 1278   4.287   1.666   1.867  0.6609  0.8492  1.2437
  427SOL     OW 1279   3.260   0.521   0.951 -0.5039  0.0902  0.1463
  427SOL    HW1 1280   3.197   0.593   0.965 -0.5778  0.3364 -1.2978
  427SOL    HW2 1281   3.253   0.468   1.031 -1.0124  1.2602  0.9151
  428SOL     OW 1282   0.837   1.422   2.018 -0.3069  0.5443  0.0733
  428SOL    HW1 1283   0.875   1.505   1.988  1.3371 -0.2119 -0.0564
  428SOL    HW2 1284   0.836   1.430   2.114  3.2057 -0.5782  0.3218
  429SOL     OW 1285   0.655   4.444   3.995 -0.6117 -0.3939 -0.4905
  429SOL    HW1 1286   0.685   4.397   4.073  0.1765  0.5900 -0.1908
  429SOL    HW2 1287   0.562   4.462   4.013 -0.4691 -0.2905  0.1590
  430SOL     OW 1288   0.131   0.615   4.245  0.2226  0.3452  0.0688
  430SOL    HW1 1289   0.150   0.574   4.160  0.1420 -0.3815  0.3917
  430SOL    HW2 1290   0.217   0.630   4.284  0.2967  1.4525 -0.4851
  431SOL     OW 1291   4.214   1.320   1.238 -0.1670  0.4453 -0.8160
  431SOL    HW1 1292   4.173   1.402   1.209  0.3253  1.0832  0.2212
  431SOL    HW2 1293   4.304   1.345   1.260 -0.6999  0.2629  2.0709
  432SOL     OW 1294   1.267   4.476   4.067 -0.1969  0.2023 -0.2048
  432SOL    HW1 1295   1.252   4.524   3.985 -0.3273 -0.3521 -0.5110
  432SOL    HW2 1296   1.180   4.448   4.095 -0.0323 -0.6149 -0.4983
  433SOL     OW 1297   3.570   2.742   0.460 -0.4572  1.0274 -0.0858
  433SOL    HW1 1298   3.629   2.814   0.482  0.3087  0.8542 -1.4613
  433SOL    HW2 1299   3.542   2.761   0.370  0.3179 -0.7498 -0.7301
  434SOL     OW 1300   0.358   1.853   3.217 -0.0811  0.5913 -0.3492
  434SOL    HW1 1301   0.373   1.839   3.311 -0.4672 -0.9223 -0.4901
  434SOL    HW2 1302   0.442   1.884   3.184  0.6723 -0.7888  0.1629
  435SOL     OW 1303   1.946   0.558   3.372 -0.1169  0.0867  0.7612
  435SOL    HW1 1304   2.003   0.579   3.298 -0.5360 -1.6373 -0.0854
  435SOL    HW2 1305   1.860   0.548   3.333 -0.1385 -2.0125  1.2676
  436SOL     OW 1306   0.106   1.869   3.931 -0.1194  0.0625  0.1483
  436SOL    HW1 1307   0.135   1.961   3.930  0.4229 -0.1064 -0.6963
  436SOL    HW2 1308   0.166   1.826   3.991  0.0382  0.1334  0.0423
  437SOL     OW 1309   2.216   2.649   0.425 -0.2299  0.3890 -0.6359
  437SOL    HW1 1310   2.243   2.642   0.516 -1.2957 -0.9524 -0.3977
  437SOL    HW2 1311   2.146   2.586   0.415 -0.1913  0.5550 -2.3805
  438SOL     OW 1312   3.541   4.306   3.522 -0.1815  0.2733 -0.0798
  438SOL    HW1 1313   3.627   4.340   3.547 -0.7415  1.2889  0.5154
  438SOL    HW2 1314   3.556   4.262   3.438  0.9148  0.4111  0.0251
  439SOL     OW 1315   1.093   0.205   4.185 -0.2562  0.0074 -0.0825
  439SOL    HW1 1316   1.108   0.236   4.096 -1.0279 -0.5956 -0.4306
  439SOL    HW2 1317   1.066   0.114   4.175  0.1028 -0.2133  0.7992
  440SOL     OW 1318   1.756   2.192   4.487 -0.0029  0.1304 -0.0606
  440SOL    HW1 1319   1.804   2.275   4.485  0.0788  0.0808 -1.8956
  440SOL    HW2 1320   1.683   2.205   4.427 -0.7388 -0.7168  0.6095
  441SOL     OW 1321   0.998   2.964   2.316  0.0964 -0.2295 -0.0212
  441SOL    HW1 1322   0.927   2.908   2.285 -0.5926  0.0248  1.0672
  441SOL    HW2 1323   1.019   3.021   2.241 -1.3949  0.2352 -0.1077
  442SOL     OW 1324   4.308   4.345   3.514 -0.0196  0.4389 -0.1385
  442SOL    HW1 1325   4.288   4.420   3.458  0.5746  0.1666 -0.7330
  442SOL    HW2 1326   4.359   4.382   3.587  0.9100  0.5255 -0.8077
  443SOL     OW 1327   0.569   0.575   3.825 -0.3216 -0.0718  0.1260
  443SOL    HW1 1328   0.631   0.548   3.758 -2.6707 -1.5341 -1.6383
  443SOL    HW2 1329   0.540   0.493   3.865 -0.3995  0.6431  1.5788
  444SOL     OW 1330   3.487   1.468   3.361  0.0168  0.0361 -0.0576
  444SOL    HW1 1331   3.441   1.389   3.333  1.7958 -0.4887 -1.7431
  444SOL    HW2 1332   3.481   1.527   3.285  3.4164 -0.7046 -1.0563
  445SOL     OW 1333   1.047   3.142   1.567  0.0880  0.1627  0.3474
  445SOL    HW1 1334   0.961   3.184   1.578 -0.1832 -0.5476  1.0835
  445SOL    HW2 1335   1.029   3.064   1.514  0.2846  0.0562  0.4345
  446SOL     OW 1336   1.691   1.991   1.397 -0.1744  0.1304  0.3141
  446SOL    HW1 1337   1.752   1.929   1.357 -1.5060 -1.9457  1.3114
  446SOL    HW2 1338   1.676   2.057   1.330  1.6899 -0.3185 -0.6150
  447SOL     OW 1339   3.078   0.742   4.270  0.2566  0.2243  0.0081
  447SOL    HW1 1340   3.165   0.769   4.241 -0.0395  0.4935 -0.6348
  447SOL    HW2 1341   3.095   0.687   4.346  0.9944  0.2189 -0.1502
  448SOL     OW 1342   0.477   1.408   0.946 -0.4875  0.3585  0.6151
  448SOL    HW1 1343   0.528   1.488   0.935  0.2505 -0.3725 -2.0031
  448SOL    HW2 1344   0.542   1.340   0.966 -1.0548  0.2797  2.3570
  449SOL     OW 1345   1.095   1.847   1.688 -0.1496  0.3137  0.1170
  449SOL    HW1 1346   1.110   1.825   1.780 -1.2415 -0.2761  0.1713
  449SOL    HW2 1347   1.010   1.893   1.687  1.2329  3.0767 -0.2246
  450SOL     OW 1348   1.569   0.846   3.755  0.3820 -0.0173 -0.1934
  450SOL    HW1 1349   1.636   0.878   3.694  0.5291 -2.5006 -1.4478
  450SOL    HW2 1350   1.488   0.887   3.724  0.6774 -0.2082 -1.2582
  451SOL     OW 1351   3.854   0.379   4.212 -0.0717  0.4545  0.0034
  451SOL    HW1 1352   3.932   0.350   4.260 -0.2897 -2.4038 -1.1464
  451SOL    HW2 1353   3.831   0.304   4.157 -3.0305  1.5904 -0.4859
  452SOL     OW 1354   4.044   0.264   3.981  0.4036 -0.5393  0.1064
  452SOL    HW1 1355   4.051   0.343   4.035 -0.3517 -1.2332  1.2667
  452SOL    HW2 1356   4.104   0.202   4.022  0.0566 -0.9709 -0.0279
  453SOL     OW 1357   2.804   1.960   3.613 -0.0322 -0.3027 -0.4376
  453SOL    HW1 1358   2.758   2.044   3.622 -1.2086 -0.9876  0.1164
  453SOL    HW2 1359   2.893   1.984   3.586  0.1482  1.2219  1.3199
  454SOL     OW 1360   4.433   2.196   0.585 -0.1515 -0.1083  0.0170
  454SOL    HW1 1361   4.387   2.122   0.546  0.9939 -0.8318 -0.0022
  454SOL    HW2 1362   4.515   2.203   0.535  0.6480 -0.0855  1.2790
  455SOL     OW 1363   0.240   0.566   3.980 -0.2245 -0.2228  0.3334
  455SOL    HW1 1364   0.261   0.475   3.959 -0.3792 -0.4272  1.0414
  455SOL    HW2 1365   0.186   0.595   3.906 -1.0179 -1.0168  0.5727
  456SOL     OW 1366   0.902   0.624   0.491  0.6318  0.0636 -0.5546
  456SOL    HW1 1367   0.850   0.544   0.488 -0.5896  0.8112 -0.2903
  456SOL    HW2 1368   0.930   0.631   0.582  1.3788 -0.4484 -0.7423
  457SOL     OW 1369   3.242   1.704   3.768 -0.4389  0.1904 -0.6049
  457SOL    HW1 1370   3.287   1.733   3.689 -0.3678 -0.9326 -0.9937
  457SOL    HW2 1371   3.154   1.680   3.739  0.0973 -1.8755 -0.7240
  458SOL     OW 1372   1.359   0.315   2.051 -0.1759  0.3652  0.2600
  458SOL    HW1 1373   1.377   0.408   2.047 -0.0121  0.3113 -0.3979
  458SOL    HW2 1374   1.444   0.275   2.071  0.0241  0.2638 -0.7676
  459SOL     OW 1375   0.287   3.787   4.090 -0.2394 -0.2442 -0.0742
  459SOL    HW1 1376   0.260   3.863   4.038  0.0488 -0.6687 -0.8682
  459SOL    HW2 1377   0.367   3.816   4.134 -1.1452  0.5203  1.1104
  460SOL     OW 1378   0.212   4.182   0.903  0.2676  0.4025  0.1724
  460SOL    HW1 1379   0.299   4.143   0.898  0.6711  1.2229  0.4641
  460SOL    HW2 1380   0.173   4.165   0.818 -0.6929 -3.0693  1.1796
  461SOL     OW 1381   2.268   1.744   2.766  0.1876  0.1154  0.8188
  461SOL    HW1 1382   2.212   1.799   2.711  0.6344  1.0337  1.2518
  461SOL    HW2 1383   2.238   1.655   2.751  0.0595  0.3879 -0.6244
  462SOL     OW 1384   2.689   3.188   4.470 -0.6371  0.2467  0.1910
  462SOL    HW1 1385   2.631   3.131   4.420 -0.0856  0.0986 -0.2872
  462SOL    HW2 1386   2.769   3.137   4.482 -0.2486  0.8064  0.0118
  463SOL     OW 1387   3.992   4.100   0.115 -0.0436  0.1611  0.1706
  463SOL    HW1 1388   4.001   4.188   0.079 -2.4705 -0.1121 -1.3503
  463SOL    HW2 1389   3.955   4.114   0.202 -2.5418  0.6699 -0.8944
  464SOL     OW 1390   0.307   2.324   1.625  0.3817  0.1792 -0.0027
  464SOL    HW1 1391   0.369   2.394   1.606  1.7844 -1.2320 -0.8831
  464SOL    HW2 1392   0.221   2.360   1.602  1.3068  0.8191 -2.9116
  465SOL     OW 1393   1.591   1.376   1.148 -0.0506 -0.0436  0.0619
  465SOL    HW1 1394   1.552   1.458   1.118  0.8108  0.7658  1.0493
  465SOL    HW2 1395   1.661   1.358   1.085 -0.4603 -0.2003 -0.3480
  466SOL     OW 1396   2.208   1.456   2.636  0.0086 -0.0106 -0.2205
  466SOL    HW1 1397   2.196   1.521   2.567 -0.1926  0.7087  0.4842
  466SOL    HW2 1398   2.145   1.387   2.615 -0.9963  0.8236 -0.0253
  467SOL     OW 1399   2.087   0.248   2.091 -0.4466 -0.0285 -1.0745
  467SOL    HW1 1400   2.102   0.156   2.115 -1.2506 -0.2254 -1.3209
  467SOL    HW2 1401   2.175   0.282   2.074 -0.1500 -0.7849 -1.1079
  468SOL     OW 1402   0.799   3.266   1.610  0.3559 -0.2692 -0.2477
  468SOL    HW1 1403   0.749   3.281   1.530 -2.1028 -2.3416  0.7531
  468SOL    HW2 1404   0.760   3.325   1.674  1.7649  0.7917 -0.3240
  469SOL     OW 1405   1.685   2.643   2.556  0.0150  0.1167 -0.2059
  469SOL    HW1 1406   1.705   2.725   2.511 -0.5370  0.3796  0.0071
  469SOL    HW2 1407   1.742   2.578   2.516  0.6865  0.6696 -0.1597
  470SOL     OW 1408   0.785   2.151   0.216  0.1865  0.2941  0.0628
  470SOL    HW1 1409   0.724   2.079   0.202  1.2017 -0.3293 -1.4817
  470SOL    HW2 1410   0.827   2.132   0.300 -0.1525 -0.4815  0.0637
  471SOL     OW 1411   1.636   1.157   3.975 -0.6720 -0.3158 -0.6854
  471SOL    HW1 1412   1.651   1.078   4.026  0.6032 -0.1447 -0.7480
  471SOL    HW2 1413   1.724   1.185   3.949 -1.1975  0.3714 -1.7970
  472SOL     OW 1414   3.462   3.567   4.250  0.2823 -0.3104 -0.2634
  472SOL    HW1 1415   3.429   3.506   4.184 -0.1283  0.2351 -0.5717
  472SOL    HW2 1416   3.537   3.522   4.289 -0.1923 -1.1284 -0.2759
  473SOL     OW 1417   0.404   3.480   1.631  0.3263  0.0556  0.1127
  473SOL    HW1 1418   0.496   3.490   1.655  0.2337  0.2407  0.4014
  473SOL    HW2 1419   0.401   3.400   1.579  0.3667 -0.9733  1.6360
  474SOL     OW 1420   0.178   3.371   0.980  0.2262 -0.0067  0.2228
  474SOL    HW1 1421   0.136   3.386   1.065 -0.0352 -0.7229  0.2263
  474SOL    HW2 1422   0.117   3.409   0.916  0.4158  0.5190  0.3549
  475SOL     OW 1423   3.147   1.109   0.211 -0.2249  0.1395  0.5206
  475SOL    HW1 1424   3.237   1.138   0.193 -0.0919 -0.6525 -0.1382
  475SOL    HW2 1425   3.112   1.176   0.270  1.5083 -0.6618  2.5872
  476SOL     OW 1426   0.345   0.889   3.248 -0.6541 -0.1613 -0.2636
  476SOL    HW1 1427   0.298   0.964   3.283 -0.9637  0.0941 -1.2049
  476SOL    HW2 1428   0.292   0.859   3.174 -0.0791 -0.7610 -0.4477
  477SOL     OW 1429   2.843   1.715   3.339  0.3885  0.3569  0.2042
  477SOL    HW1 1430   2.794   1.795   3.358 -0.5006  0.0935 -0.8748
  477SOL    HW2 1431   2.779   1.658   3.296  1.3876 -0.4036 -0.2998
  478SOL     OW 1432   3.254   1.331   4.222  0.6666  0.1267  0.5119
  478SOL    HW1 1433   3.314   1.264   4.191  1.4269  1.3120 -0.7111
  478SOL    HW2 1434   3.223   1.375   4.143 -0.3750  0.7544  1.2347
  479SOL     OW 1435   0.230   0.797   0.975 -0.0120 -0.5956  0.4434
  479SOL    HW1 1436   0.221   0.832   0.886  0.0485  0.0846  0.7049
  479SOL    HW2 1437   0.140   0.778   1.002 -0.0245 -0.8852  0.2092
  480SOL     OW 1438   2.719   1.130   3.000 -0.1607  0.1227  0.1374
  480SOL    HW1 1439   2.761   1.159   3.081 -1.2312  0.2262  0.6812
  480SOL    HW2 1440   2.751   1.041   2.988  0.2945  0.2326  0.4682
  481SOL     OW 1441   1.400   1.663   3.350 -0.5114  0.2088  0.2178
  481SOL    HW1 1442   1.323   1.714   3.323  0.7360  2.9104  1.4213
  481SOL    HW2 1443   1.398   1.666   3.446  0.4990 -0.6788  0.2777
  482SOL     OW 1444   2.338   0.371   4.183 -0.4058  0.0257 -0.3324
  482SOL    HW1 1445   2.370   0.435   4.246  1.1506 -0.7270 -0.2934
  482SOL    HW2 1446   2.246   0.394   4.169 -0.6577  0.4939  1.8222
  483SOL     OW 1447   4.188   3.865   1.374 -0.0304  0.1207  0.6212
  483SOL    HW1 1448   4.223   3.788   1.420  0.3851  0.8931  1.6369
  483SOL    HW2 1449   4.253   3.933   1.388 -0.5378  0.7527 -0.0111
  484SOL     OW 1450   3.919   1.539   2.306 -0.0284 -0.4908  0.0977
  484SOL    HW1 1451   3.941   1.564   2.217  1.9092 -0.1570  0.6311
  484SOL    HW2 1452   3.902   1.445   2.302  1.7923 -0.8303 -0.3408
  485SOL     OW 1453   4.236   1.620   1.140 -0.2330  0.6803  0.1441
  485SOL    HW1 1454   4.316   1.571   1.155 -1.7503 -1.4489  1.7602
  485SOL    HW2 1455   4.216   1.605   1.047  0.2705 -0.2603  0.1825
  486SOL     OW 1456   4.094   4.109   2.850  0.2960  0.1102 -0.8891
  486SOL    HW1 1457   4.139   4.025   2.839  0.2054  0.0508 -0.8133
  486SOL    HW2 1458   4.114   4.136   2.939  2.1800  1.2745 -1.5965
  487SOL     OW 1459   2.390   4.106   3.602 -0.0739 -0.2848  0.0476
  487SOL    HW1 1460   2.472   4.133   3.641 -0.3248 -2.0761  2.0005
  487SOL    HW2 1461   2.411   4.089   3.510  1.1102  1.7054 -0.0857
  488SOL     OW 1462   1.732   3.652   2.954 -0.0541  0.1729 -0.2306
  488SOL    HW1 1463   1.673   3.708   2.903 -1.8502 -1.5358 -0.1614
  488SOL    HW2 1464   1.695   3.652   3.042  2.7621  2.7356  1.1135
  489SOL     OW 1465   0.669   2.991   2.996 -0.3995  0.1309 -0.5457
  489SOL    HW1 1466   0.648   2.941   2.917 -0.4046 -0.0037 -0.4603
  489SOL    HW2 1467   0.726   2.933   3.046 -2.1976 -0.7408  0.6049
  490SOL     OW 1468   3.725   4.156   4.169  0.3021 -0.6202 -0.1224
  490SOL    HW1 1469   3.760   4.119   4.088 -0.2070 -1.7100  0.1358
  490SOL    HW2 1470   3.702   4.246   4.146 -0.5464 -1.1397 -1.4224
  491SOL     OW 1471   2.382   2.845   3.100  0.1601 -0.2025 -0.2061
  491SOL    HW1 1472   2.438   2.923   3.110  1.2476 -0.7279 -1.7507
  491SOL    HW2 1473   2.354   2.848   3.008 -0.4209 -1.2156 -0.0669
  492SOL     OW 1474   1.242   2.770   2.733 -0.4270  0.3668  0.6742
  492SOL    HW1 1475   1.256   2.845   2.791  1.7706  1.5210 -1.1523
  492SOL    HW2 1476   1.266   2.694   2.785  2.0734  1.4096  1.1878
  493SOL     OW 1477   2.736   1.757   3.065  0.2004 -0.0980  0.4773
  493SOL    HW1 1478   2.721   1.840   3.111 -1.4332 -0.6100  0.9447
  493SOL    HW2 1479   2.744   1.781   2.973 -0.5085  0.5605  0.5819
  494SOL     OW 1480   4.164   0.864   2.780  0.1182 -0.7721 -0.2830
  494SOL    HW1 1481   4.193   0.944   2.738 -0.0848  0.6750  2.1477
  494SOL    HW2 1482   4.090   0.834   2.727 -0.6053  1.3498 -0.5389
  495SOL     OW 1483   2.441   3.969   4.050 -0.1203  0.9549 -0.0629
  495SOL    HW1 1484   2.365   3.993   4.103  0.3928  0.7948  0.7588
  495SOL    HW2 1485   2.436   3.874   4.041  0.1805  0.9020  0.3063
  496SOL     OW 1486   4.160   0.655   3.207 -0.1205  0.0998  0.4415
  496SOL    HW1 1487   4.139   0.566   3.177  0.2225 -0.1178  0.8354
  496SOL    HW2 1488   4.190   0.643   3.297 -1.7993  0.8093  1.1528
  497SOL     OW 1489   1.997   3.365   0.791  0.1660 -0.1711 -0.2707
  497SOL    HW1 1490   2.059   3.293   0.777 -1.6817 -1.8415 -0.3225
  497SOL    HW2 1491   1.988   3.370   0.886  1.1172  0.7629 -0.2176
  498SOL     OW 1492   3.002   4.321   0.124 -0.0652  0.2137  0.0247
  498SOL    HW1 1493   2.911   4.292   0.115 -0.0564  0.4300 -0.8637
  498SOL    HW2 1494   3.021   4.367   0.043  0.3238  1.6188  0.8721
  499SOL     OW 1495   2.159   3.129   0.367  0.2743 -0.3145 -0.1848
  499SOL    HW1 1496   2.207   3.046   0.369  0.5297 -0.1815  1.8317
  499SOL    HW2 1497   2.202   3.181   0.299  0.1976 -1.7564 -1.3766
  500SOL     OW 1498   3.996   4.366   2.185  0.3213  0.2034 -0.0724
  500SOL    HW1 1499   3.924   4.319   2.226 -1.0122  0.8920 -1.5161
  500SOL    HW2 1500   3.977   4.458   2.203  0.6615  0.4070 -0.7440
  501SOL     OW 1501   0.817   1.989   3.700  0.1912  0.8090  0.3545
  501SOL    HW1 1502   0.874   2.066   3.692 -0.4638  1.0616 -3.2602
  501SOL    HW2 1503   0.852   1.926   3.638 -1.0380 -0.6770  1.1134
  502SOL     OW 1504   1.457   1.672   0.391  0.0909 -0.8601  0.2319
  502SOL    HW1 1505   1.459   1.669   0.487 -1.5643 -0.9559  0.3028
  502SOL    HW2 1506   1.464   1.765   0.369 -0.3371 -0.7587  0.5016
  503SOL     OW 1507   1.325   3.566   0.320 -0.2952  0.4774  0.3563
  503SOL    HW1 1508   1.403   3.545   0.269  0.1810  0.5902  1.0298
  503SOL    HW2 1509   1.327   3.661   0.330 -1.2261  0.6378 -0.7319
  504SOL     OW 1510   0.738   0.721   1.001 -0.3358  0.2234  0.0100
  504SOL    HW1 1511   0.685   0.654   1.045  1.9183 -0.8512  1.2787
  504SOL    HW2 1512   0.758   0.784   1.070  0.5428  0.2627 -0.2744
  505SOL     OW 1513   3.461   0.914   1.265  0.0817  0.5386 -0.0125
  505SOL    HW1 1514   3.390   0.850   1.265 -1.7307  2.4000 -1.7784
  505SOL    HW2 1515   3.517   0.887   1.192  1.3144 -0.9555  1.4074
  506SOL     OW 1516   4.160   3.827   2.850  0.5131 -0.5188 -0.4056
  506SOL    HW1 1517   4.145   3.772   2.773 -1.4879 -0.6398  0.0142
  506SOL    HW2 1518   4.122   3.778   2.922 -1.3747  1.3545 -0.0222
  507SOL     OW 1519   4.431   2.070   4.161  0.3249 -0.4791  0.2419
  507SOL    HW1 1520   4.445   1.985   4.204  0.6484 -0.1458  0.8078
  507SOL    HW2 1521   4.385   2.123   4.227 -0.2286 -0.3371 -0.2512
  508SOL     OW 1522   1.540   4.153   4.395  0.1513 -0.6425 -0.0537
  508SOL    HW1 1523   1.448   4.141   4.374  0.4508 -2.0488 -0.6837
  508SOL    HW2 1524   1.584   4.079   4.352  1.4474 -0.5426  1.0512
  509SOL     OW 1525   4.414   3.488   0.178 -0.4205  0.1939 -0.8527
  509SOL    HW1 1526   4.402   3.583   0.177  2.4687  0.6629 -0.3820
  509SOL    HW2 1527   4.452   3.468   0.092 -2.6503 -0.8655 -1.6564
  510SOL     OW 1528   0.416   4.003   0.882 -0.3795  0.2226 -0.0940
  510SOL    HW1 1529   0.422   3.933   0.817 -0.7688 -0.7473  0.8806
  510SOL    HW2 1530   0.444   3.963   0.964 -1.5894  0.9071  0.6946
  511SOL     OW 1531   3.204   3.610   2.238 -0.7140  0.1468  0.6910
  511SOL    HW1 1532   3.127   3.654   2.202 -1.3688 -1.5159 -0.0204
  511SOL    HW2 1533   3.277   3.648   2.190 -1.2436  0.5935  0.2213
  512SOL     OW 1534   1.039   1.916   4.141 -0.3016  0.0235 -0.5992
  512SOL    HW1 1535   1.022   1.827   4.108  1.2965 -0.4983 -0.1259
  512SOL    HW2 1536   0.953   1.951   4.161 -0.9609 -1.4994 -0.6177
  513SOL     OW 1537   3.260   1.717   4.043  0.1572 -0.1903 -0.2989
  513SOL    HW1 1538   3.281   1.627   4.066  1.4273  0.6791  2.2383
  513SOL    HW2 1539   3.258   1.717   3.947  1.3269 -2.6189 -0.3944
  514SOL     OW 1540   0.506   1.097   3.426 -0.7815  0.1136  0.0162
  514SOL    HW1 1541   0.577   1.040   3.456  0.8874  1.0947 -1.7842
  514SOL    HW2 1542   0.439   1.037   3.393  0.2339 -0.8583 -0.3508
  515SOL     OW 1543   2.142   1.151   3.268 -0.0074 -0.6331 -0.2923
  515SOL    HW1 1544   2.152   1.088   3.340 -0.3775  1.1504  1.4123
  515SOL    HW2 1545   2.231   1.182   3.252  0.1986 -1.6704 -1.2485
  516SOL     OW 1546   2.332  -0.002   0.236  0.0803 -0.2302 -0.1387
  516SOL    HW1 1547   2.270   0.054   0.189 -1.7789 -1.9217  0.1486
  516SOL    HW2 1548   2.344   0.042   0.320  0.4197  0.8617 -0.7439
  517SOL     OW 1549   4.322   3.563   4.196  0.0495  0.2605 -0.0042
  517SOL    HW1 1550   4.414   3.570   4.168 -0.2455  0.2171 -1.0202
  517SOL    HW2 1551   4.319   3.610   4.279  1.2869 -0.9375  0.7634
  518SOL     OW 1552   0.959   1.695   0.546  0.0335  0.4759  0.3727
  518SOL    HW1 1553   0.974   1.741   0.463 -1.0487 -0.3725 -0.3235
  518SOL    HW2 1554   1.036   1.715   0.599  0.4097  1.6261 -0.5621
  519SOL     OW 1555   2.473   0.811   3.003 -0.0411  0.2881  0.2400
  519SOL    HW1 1556   2.553   0.857   2.978 -0.8393  1.4676 -0.2363
  519SOL    HW2 1557   2.430   0.870   3.066 -0.5099 -0.3500  0.5282
  520SOL     OW 1558   0.873   4.243   1.010 -0.2218  0.1775  0.2237
  520SOL    HW1 1559   0.861   4.268   1.101 -0.6306  0.0453  0.2079
  520SOL    HW2 1560   0.823   4.163   1.000 -0.3614  0.3105 -0.1741
  521SOL     OW 1561   3.975   1.548   3.454  0.0450  0.6880 -0.2883
  521SOL    HW1 1562   4.062   1.575   3.484 -0.8476  1.2326  1.9860
  521SOL    HW2 1563   3.940   1.496   3.526 -1.5619  0.5464 -1.1287
  522SOL     OW 1564   3.487   2.011   2.514 -0.7332  0.6617 -0.3839
  522SOL    HW1 1565   3.459   2.028   2.424 -3.2870 -0.2039  0.1387
  522SOL    HW2 1566   3.436   2.072   2.567  2.1153  2.4685  0.4313
  523SOL     OW 1567   1.550   2.240   4.311  0.6892 -0.1075 -0.4619
  523SOL    HW1 1568   1.485   2.308   4.328  0.3746 -0.8919  1.8617
  523SOL    HW2 1569   1.500   2.158   4.312  1.5104 -0.6164  0.0012
  524SOL     OW 1570   1.449   2.584   2.892 -0.2364 -0.0287 -0.3031
  524SOL    HW1 1571   1.517   2.527   2.856  0.6961  0.2575  0.9387
  524SOL    HW2 1572   1.491   2.629   2.965 -1.5829  0.6452  0.0968
  525SOL     OW 1573   1.152   4.234   0.598 -0.0031 -0.2858  1.1721
  525SOL    HW1 1574   1.176   4.157   0.547  1.5333  0.1418  1.2108
  525SOL    HW2 1575   1.133   4.301   0.532 -0.7953 -0.5292  1.1455
  526SOL     OW 1576   0.557   3.741   3.271  0.0195 -0.1207  0.3956
  526SOL    HW1 1577   0.540   3.665   3.216  0.9115  0.5035 -0.7940
  526SOL    HW2 1578   0.538   3.712   3.360  0.4781 -1.7667 -0.0196
  527SOL     OW 1579   4.018   1.381   1.666  0.2111  0.5481 -0.3211
  527SOL    HW1 1580   3.950   1.324   1.629  0.0396  1.8407 -2.1260
  527SOL    HW2 1581   4.075   1.322   1.716 -0.2674 -1.1140 -1.6672
  528SOL     OW 1582   4.313   2.899   2.143 -0.4467 -0.7599 -0.2327
  528SOL    HW1 1583   4.287   2.927   2.056  0.8155  0.4410 -0.2469
  528SOL    HW2 1584   4.247   2.834   2.168 -1.0230 -0.8590 -1.9221
  529SOL     OW 1585   2.739   2.182   3.895 -0.7130  0.2072 -0.2452
  529SOL    HW1 1586   2.816   2.161   3.842 -0.1288 -0.8268  0.9603
  529SOL    HW2 1587   2.672   2.121   3.866 -1.2508  1.3610 -1.5671
  530SOL     OW 1588   1.467   2.331   0.438  0.1136  0.2937  0.2078
  530SOL    HW1 1589   1.483   2.349   0.530 -1.5681  1.9984  0.2182
  530SOL    HW2 1590   1.528   2.390   0.392  1.2511 -0.8543  0.1804
  531SOL     OW 1591   2.442   2.894   4.092 -0.0504 -0.0599  0.2122
  531SOL    HW1 1592   2.363   2.879   4.041 -0.4598 -1.7387  1.2343
  531SOL    HW2 1593   2.513   2.859   4.038 -0.3451 -0.8336  0.3078
  532SOL     OW 1594   3.693   1.555   2.661 -0.5054 -0.4880  0.6937
  532SOL    HW1 1595   3.699   1.623   2.593 -1.5219 -0.2922  0.7850
  532SOL    HW2 1596   3.678   1.604   2.742  1.6469 -0.6589  1.2487
  533SOL     OW 1597   1.702   2.688   1.883  0.6058 -0.0012  0.3337
  533SOL    HW1 1598   1.613   2.652   1.894 -0.7838  3.0353 -0.0317
  533SOL    HW2 1599   1.757   2.632   1.939 -1.3280 -2.5202 -0.0967
  534SOL     OW 1600   3.411   2.794   0.713 -0.1278  0.5733  0.3209
  534SOL    HW1 1601   3.355   2.869   0.696  1.2896  1.6932  0.3685
  534SOL    HW2 1602   3.493   2.814   0.667  0.0350 -1.3031 -0.3219
  535SOL     OW 1603   1.220   3.700   3.983  0.0700  0.4164 -0.2538
  535SOL    HW1 1604   1.258   3.772   3.932  1.6457 -1.4256 -1.8270
  535SOL    HW2 1605   1.182   3.642   3.918 -0.7672 -0.4221  0.9437
  536SOL     OW 1606   3.500   0.277   0.092 -0.2697  0.3404  0.0537
  536SOL    HW1 1607   3.436   0.219   0.050 -0.8134  1.4252 -0.6467
  536SOL    HW2 1608   3.513   0.239   0.179  1.0083 -2.0685 -1.0770
  537SOL     OW 1609   3.199   3.447   4.440  0.0363  0.5780 -0.5933
  537SOL    HW1 1610   3.141   3.404   4.503 -0.8639 -0.6445 -2.1904
  537SOL    HW2 1611   3.233   3.524   4.487 -1.2057  0.1488  1.0893
  538SOL     OW 1612   1.137   2.246   0.076  0.0364 -0.3598 -0.3585
  538SOL    HW1 1613   1.200   2.237   0.148  1.0887  0.2976 -1.1607
  538SOL    HW2 1614   1.103   2.158   0.063 -0.4574 -0.4276  1.1771
  539SOL     OW 1615   3.980   4.409   4.159 -0.0685  0.2698  0.3884
  539SOL    HW1 1616   4.015   4.320   4.149 -0.9897  0.1052 -1.9430
  539SOL    HW2 1617   4.036   4.463   4.103 -0.6135  0.8441  0.3946
  540SOL     OW 1618   3.367   4.393   0.736 -0.2817 -0.0249  0.0167
  540SOL    HW1 1619   3.376   4.487   0.756 -0.6181  0.0279 -0.0821
  540SOL    HW2 1620   3.452   4.356   0.761 -0.9665 -0.1463  2.4637
  541SOL     OW 1621   4.215   3.422   1.671  0.2757  0.6905  0.6202
  541SOL    HW1 1622   4.173   3.400   1.588 -1.2255 -0.0582  1.5334
  541SOL    HW2 1623   4.214   3.517   1.674  0.9705  0.7538 -0.5065
  542SOL     OW 1624   4.411   2.681   3.930 -0.1888  0.2101 -0.0847
  542SOL    HW1 1625   4.483   2.713   3.983  0.2450 -1.0299  0.0907
  542SOL    HW2 1626   4.414   2.736   3.851  0.0182  1.1309  0.5451
  543SOL     OW 1627   0.062   1.352   2.799  0.0663  0.2734 -0.5273
  543SOL    HW1 1628   0.077   1.278   2.859  0.4987  0.8829  0.1233
  543SOL    HW2 1629   0.107   1.426   2.839 -0.4005  0.9141 -1.1537
  544SOL     OW 1630   0.449   2.259   0.579 -0.2885  0.4794  0.2695
  544SOL    HW1 1631   0.455   2.207   0.659  1.3516  0.0594 -0.0765
  544SOL    HW2 1632   0.479   2.346   0.604  0.1755  0.3609  0.1507
  545SOL     OW 1633   1.102   1.505   1.065 -0.3200  0.2113  0.1284
  545SOL    HW1 1634   1.080   1.424   1.111 -1.5211 -0.0496 -0.8326
  545SOL    HW2 1635   1.197   1.501   1.053  0.0082  0.1919  2.3343
  546SOL     OW 1636   3.025   2.446   0.224  0.3084  0.4421  0.5449
  546SOL    HW1 1637   2.931   2.465   0.222  0.0862 -0.6444 -0.7773
  546SOL    HW2 1638   3.031   2.351   0.233  1.2485  0.3926 -0.3295
  547SOL     OW 1639   0.407   4.292   4.463 -0.3640 -0.7691 -0.6632
  547SOL    HW1 1640   0.491   4.329   4.491  0.2985 -1.9295 -1.0740
  547SOL    HW2 1641   0.423   4.198   4.457 -1.5560 -0.9450 -1.2563
  548SOL     OW 1642   2.124   0.577   1.366  0.1654 -0.1855  0.1886
  548SOL    HW1 1643   2.052   0.593   1.305 -0.1950  0.6157  0.8099
  548SOL    HW2 1644   2.148   0.663   1.399  1.4254 -0.4410 -0.0036
  549SOL     OW 1645   2.986   0.720   2.728  0.4371 -0.6791 -0.0591
  549SOL    HW1 1646   2.918   0.692   2.790 -1.3821 -1.5233 -2.3163
  549SOL    HW2 1647   2.953   0.802   2.692  0.3590 -1.3287 -1.5146
  550SOL     OW 1648   3.809   3.261   2.509 -0.2199  0.2837 -0.7725
  550SOL    HW1 1649   3.839   3.348   2.482  0.4574  0.1544 -0.4439
  550SOL    HW2 1650   3.857   3.243   2.590 -0.0144 -0.5844 -1.0785
  551SOL     OW 1651   0.823   1.365   4.287  0.0100  0.0175  0.2020
  551SOL    HW1 1652   0.898   1.306   4.274 -1.7196 -2.1488 -0.6710
  551SOL    HW2 1653   0.824   1.387   4.380  0.2152 -2.2206  0.7814
  552SOL     OW 1654   3.560   3.180   0.911 -0.5689 -0.1357 -0.4580
  552SOL    HW1 1655   3.616   3.204   0.837 -0.2303 -0.0895 -0.1925
  552SOL    HW2 1656   3.472   3.203   0.883 -0.6434 -1.5029 -1.4402
  553SOL     OW 1657   2.073   3.713   1.802  0.3802  0.1198 -0.4178
  553SOL    HW1 1658   2.044   3.746   1.887  3.7697  2.4211  0.0639
  553SOL    HW2 1659   2.021   3.635   1.788 -1.6626  0.6739  2.8723
  554SOL     OW 1660   2.537   3.686   3.154 -0.1698  0.2091  0.2337
  554SOL    HW1 1661   2.565   3.770   3.117 -1.6742  1.2480  1.3205
  554SOL    HW2 1662   2.534   3.702   3.248  1.5171 -1.7256  0.6804
  555SOL     OW 1663   0.693   2.996   3.783  0.5751 -0.5593  0.2159
  555SOL    HW1 1664   0.602   2.970   3.767  0.3589  0.3785 -0.1822
  555SOL    HW2 1665   0.722   2.940   3.855 -0.5613 -0.3759  0.8446
  556SOL     OW 1666   2.869   2.198   2.586  0.5843 -0.1380 -0.2629
  556SOL    HW1 1667   2.786   2.218   2.629  0.8526  0.2112  0.1037
  556SOL    HW2 1668   2.929   2.266   2.618  1.5913 -1.6669  1.2074
  557SOL     OW 1669   0.105   0.970   2.259  0.3292  0.3402  0.2195
  557SOL    HW1 1670   0.193   0.945   2.285 -0.6692 -2.1219  1.5504
  557SOL    HW2 1671   0.064   1.001   2.340 -0.1051  1.2895 -0.3438
  558SOL     OW 1672   3.984   2.064   2.735  0.5124  0.4012 -0.3490
  558SOL    HW1 1673   3.907   2.119   2.723  0.7108  0.8478  0.3834
  558SOL    HW2 1674   3.965   1.985   2.684  0.4151  1.3094 -1.7619
  559SOL     OW 1675   3.953   1.546   3.816 -0.2431  0.4830 -0.0675
  559SOL    HW1 1676   3.931   1.623   3.764 -0.5381  0.6982  0.3644
  559SOL    HW2 1677   3.916   1.564   3.903  0.0289  0.0283  0.1502
  560SOL     OW 1678   1.232   2.658   0.296 -0.0079 -0.3826 -0.0873
  560SOL    HW1 1679   1.178   2.724   0.253  0.5359 -1.6327 -2.9098
  560SOL    HW2 1680   1.168   2.598   0.337 -0.6652 -0.3569 -1.0486
  561SOL     OW 1681   2.985   2.189   3.361 -0.2743 -0.8626  0.1177
  561SOL    HW1 1682   2.900   2.234   3.358 -1.1701 -2.4990 -0.2466
  561SOL    HW2 1683   2.991   2.146   3.275  1.5250  0.2284 -0.3574
  562SOL     OW 1684   0.611   3.629   3.839 -0.1268  0.1576 -0.1885
  562SOL    HW1 1685   0.525   3.588   3.829  1.1008 -2.2074 -2.0488
  562SOL    HW2 1686   0.639   3.648   3.749  0.9998  1.6404  0.4277
  563SOL     OW 1687   1.979   1.474   4.068 -0.5125 -0.3160 -0.0002
  563SOL    HW1 1688   1.966   1.489   3.974  1.2664  0.5671 -0.1500
  563SOL    HW2 1689   1.906   1.518   4.110 -0.6154  0.4241 -0.9218
  564SOL     OW 1690   3.501   2.525   1.103  0.3999  0.0409  0.2502
  564SOL    HW1 1691   3.525   2.607   1.059  0.1450 -0.5845 -1.1116
  564SOL    HW2 1692   3.405   2.531   1.112  0.4572  0.1891  0.7827
  565SOL     OW 1693   1.884   1.651   2.587  0.3740 -0.0433 -0.1626
  565SOL    HW1 1694   1.849   1.562   2.592  0.0743  0.1276  1.6662
  565SOL    HW2 1695   1.925   1.664   2.672 -0.1787  1.8017 -0.1486
  566SOL     OW 1696   4.303   2.832   0.105 -0.3921  0.1450  0.0103
  566SOL    HW1 1697   4.373   2.812   0.168 -0.2564  0.5346 -0.0148
  566SOL    HW2 1698   4.349   2.866   0.028 -0.4453 -1.6240 -0.8488
  567SOL     OW 1699   2.768   1.708   3.661 -0.3422  0.3071  0.2468
  567SOL    HW1 1700   2.760   1.704   3.757  0.6552  1.4022  0.4107
  567SOL    HW2 1701   2.801   1.797   3.645  1.7397 -0.6218 -0.9286
  568SOL     OW 1702   2.202   3.159   3.093  0.6019  0.0751  0.1163
  568SOL    HW1 1703   2.212   3.213   3.014 -2.1179  1.3138  0.4954
  568SOL    HW2 1704   2.241   3.211   3.163  2.4973 -0.7757 -0.2211
  569SOL     OW 1705   1.878   4.060   1.077  0.4295  0.2816  0.2178
  569SOL    HW1 1706   1.840   4.145   1.101 -0.0365  0.3652 -0.7632
  569SOL    HW2 1707   1.875   4.009   1.158 -0.8732  0.6299  0.4169
  570SOL     OW 1708   3.882   0.846   4.157 -0.2882  0.2014 -0.3822
  570SOL    HW1 1709   3.973   0.875   4.152 -0.4307  0.7966  0.1857
  570SOL    HW2 1710   3.878   0.792   4.235 -0.4643  0.3675 -0.2731
  571SOL     OW 1711   3.000   0.433   2.033 -0.5299 -0.9099 -0.2022
  571SOL    HW1 1712   2.928   0.444   1.971  2.0078 -0.3643 -3.2841
  571SOL    HW2 1713   3.030   0.522   2.051 -0.1956 -1.1698  0.5794
  572SOL     OW 1714   1.392   3.420   2.796 -0.1967  0.9243 -0.1062
  572SOL    HW1 1715   1.441   3.396   2.875 -1.8669  0.0762  0.7286
  572SOL    HW2 1716   1.327   3.351   2.787  0.4523  0.5544 -2.7433
  573SOL     OW 1717   3.866   4.117   3.544  0.0837  0.3093  0.0444
  573SOL    HW1 1718   3.925   4.119   3.619 -1.7574 -1.9781  1.7325
  573SOL    HW2 1719   3.892   4.192   3.490  2.1467  1.4616  2.4348
  574SOL     OW 1720   1.950   3.200   3.823 -0.4476 -0.5920 -0.2132
  574SOL    HW1 1721   1.887   3.129   3.836  1.1519 -2.5802 -2.4037
  574SOL    HW2 1722   2.032   3.167   3.861  0.3589  0.0155 -1.3627
  575SOL     OW 1723   1.002   4.443   4.414 -0.4301  0.0243  0.1823
  575SOL    HW1 1724   1.039   4.522   4.453 -0.3443 -0.3469  0.8547
  575SOL    HW2 1725   1.034   4.371   4.468 -0.4994 -0.4778 -0.4311
  576SOL     OW 1726   1.807   1.072   0.915 -0.4023 -0.1024  0.2499
  576SOL    HW1 1727   1.840   1.020   0.842 -0.5083  0.4998 -0.2365
  576SOL    HW2 1728   1.818   1.163   0.886  0.4162  0.1757  1.3542
  577SOL     OW 1729   2.742   3.355   2.800 -0.3956  0.0740 -0.1764
  577SOL    HW1 1730   2.766   3.265   2.781  0.5859 -0.1168  1.7074
  577SOL    HW2 1731   2.716   3.392   2.715  2.8211 -0.8928 -1.7561
  578SOL     OW 1732   1.547   1.591   4.391 -0.2672 -0.2690  0.7088
  578SOL    HW1 1733   1.463   1.548   4.374 -0.2271 -0.2252  0.3793
  578SOL    HW2 1734   1.525   1.666   4.446 -0.8391  1.2408 -1.4139
  579SOL     OW 1735   1.679   2.256   1.572 -0.1728 -0.5173 -0.3639
  579SOL    HW1 1736   1.657   2.166   1.595  0.5911 -0.5446  0.3172
  579SOL    HW2 1737   1.633   2.272   1.489 -2.0650 -0.7995  0.5839
  580SOL     OW 1738   3.983   2.004   0.379 -0.8773 -0.2889 -0.3906
  580SOL    HW1 1739   3.988   1.947   0.456  0.5255 -1.0666 -1.0043
  580SOL    HW2 1740   3.972   2.092   0.415 -0.1604 -0.6260  0.7165
  581SOL     OW 1741   3.728   1.833   4.363  0.4732  0.3032 -0.6447
  581SOL    HW1 1742   3.782   1.884   4.423  0.6322 -0.0709 -0.4708
  581SOL    HW2 1743   3.771   1.845   4.278  1.2315 -0.5315 -0.3995
  582SOL     OW 1744   3.651   0.033   2.907 -0.3577 -0.4635 -0.0035
  582SOL    HW1 1745   3.671   0.077   2.824  0.5418 -0.2965  0.2961
  582SOL    HW2 1746   3.617   0.103   2.963  1.2634 -0.0891  0.5394
  583SOL     OW 1747   1.298   1.816   2.507  0.3983  0.3192 -0.2014
  583SOL    HW1 1748   1.259   1.902   2.520  1.2883  0.7192 -0.0547
  583SOL    HW2 1749   1.245   1.757   2.560  0.1758  0.8940  0.2267
  584SOL     OW 1750   1.679   2.363   4.095  0.1924 -0.1050  0.1734
  584SOL    HW1 1751   1.610   2.419   4.059  0.4551 -0.4387 -0.8789
  584SOL    HW2 1752   1.648   2.340   4.182 -0.2908  1.0252  0.3131
  585SOL     OW 1753   1.270   1.576   4.475  0.1044  0.1498 -0.0101
  585SOL    HW1 1754   1.286   1.659   4.519 -0.2273  1.0819 -1.5727
  585SOL    HW2 1755   1.222   1.600   4.395  0.4869 -1.4769 -0.7726
  586SOL     OW 1756   0.294   2.736   0.570  0.7051 -0.3202  0.0528
  586SOL    HW1 1757   0.268   2.788   0.646  0.0075 -1.5124  0.6647
  586SOL    HW2 1758   0.242   2.656   0.577  1.0281 -0.6867 -1.3931
  587SOL     OW 1759   2.306   2.168   3.198 -0.1417 -0.0397  0.1709
  587SOL    HW1 1760   2.331   2.194   3.286 -1.1499  0.3853  0.3413
  587SOL    HW2 1761   2.343   2.236   3.142 -0.0905  0.0604  0.3251
  588SOL     OW 1762   2.215   4.259   2.964 -0.2346 -0.3096 -0.1128
  588SOL    HW1 1763   2.151   4.223   3.025 -0.8601  0.3523 -0.3682
  588SOL    HW2 1764   2.166   4.323   2.912  0.4965 -0.2157 -0.7062
  589SOL     OW 1765   4.264   2.261   1.473  0.1052 -0.8680 -0.1631
  589SOL    HW1 1766   4.228   2.349   1.487  0.1610 -0.5521 -1.8071
  589SOL    HW2 1767   4.231   2.235   1.387 -0.1837 -2.6205  0.4313
  590SOL     OW 1768   0.359   0.371   0.023 -0.2489 -0.0319  0.5082
  590SOL    HW1 1769   0.452   0.381   0.003 -0.4136  0.7341  0.1039
  590SOL    HW2 1770   0.355   0.295   0.082  0.7226  0.4290  1.1884
  591SOL     OW 1771   2.019   1.814   3.229 -0.3107  0.0579  0.2931
  591SOL    HW1 1772   2.014   1.907   3.210 -2.5201 -0.1726 -0.5850
  591SOL    HW2 1773   2.090   1.781   3.173  2.0640  1.4892  2.2690
  592SOL     OW 1774   1.726   4.034   2.213  0.1658 -0.1640  0.2065
  592SOL    HW1 1775   1.702   3.944   2.236 -0.9829  0.1295  0.2043
  592SOL    HW2 1776   1.711   4.083   2.294  0.3446  0.1143  0.0698
  593SOL     OW 1777   3.741   3.261   0.745 -0.5957  0.6044 -0.7030
  593SOL    HW1 1778   3.815   3.205   0.721 -0.5271  0.0470  0.7290
  593SOL    HW2 1779   3.718   3.306   0.663  0.1492 -0.5661 -1.5940
  594SOL     OW 1780   2.622   4.499   0.174 -0.2494  1.0476 -0.1111
  594SOL    HW1 1781   2.535   4.473   0.204 -0.0044  1.1616  0.7251
  594SOL    HW2 1782   2.624   4.472   0.082 -0.0376 -1.9038  0.6488
  595SOL     OW 1783   3.033   2.740   0.774 -1.1029 -0.0903 -0.8212
  595SOL    HW1 1784   3.118   2.697   0.785 -0.0738  2.1950  1.1213
  595SOL    HW2 1785   2.970   2.680   0.813 -0.3498 -1.6147 -1.8611
  596SOL     OW 1786   2.523   1.408   0.144 -0.5572  0.2011  0.0242
  596SOL    HW1 1787   2.488   1.372   0.225 -1.9891  1.6161  0.0765
  596SOL    HW2 1788   2.473   1.365   0.075  0.0147 -0.3111 -0.0798
  597SOL     OW 1789   4.428   3.427   3.184 -0.0556 -0.2939 -0.4698
  597SOL    HW1 1790   4.417   3.469   3.099 -0.0260  0.8541  0.0868
  597SOL    HW2 1791   4.367   3.352   3.182  0.4375 -0.6800 -1.7424
  598SOL     OW 1792   2.551   0.544   1.982 -0.3433 -0.3740  0.4023
  598SOL    HW1 1793   2.520   0.632   1.963 -1.2916 -0.5661  0.9701
  598SOL    HW2 1794   2.646   0.549   1.973 -0.2330  1.1035  2.0373
  599SOL     OW 1795   3.594   3.909   4.239 -0.2615  0.0133  0.1019
  599SOL    HW1 1796   3.665   3.847   4.221 -0.5303 -0.3857  0.4201
  599SOL    HW2 1797   3.638   3.994   4.241  0.0184 -0.0847 -0.9364
  600SOL     OW 1798   3.055   2.459   2.382  0.1370 -0.3786  0.7783
  600SOL    HW1 1799   3.036   2.552   2.397 -0.7839 -0.4666  0.2410
  600SOL    HW2 1800   2.971   2.421   2.358  0.9045 -0.8775 -1.3468
  601SOL     OW 1801   3.438   3.839   4.479 -0.5396  0.2024  0.1770
  601SOL    HW1 1802   3.465   3.851   4.388 -1.1091  1.0527  0.1061
  601SOL    HW2 1803   3.347   3.867   4.480 -0.7475 -0.4641  0.8770
  602SOL     OW 1804   2.017   0.805   0.100  0.3814  0.1237  0.1920
  602SOL    HW1 1805   2.088   0.804   0.165 -0.1737 -1.8661  0.8519
  602SOL    HW2 1806   2.062   0.814   0.016  1.2580  0.8420  0.7172
  603SOL     OW 1807   2.050   1.909   2.128  0.3395  0.0959 -0.1290
  603SOL    HW1 1808   2.038   1.999   2.099 -0.5523 -0.4289 -1.4985
  603SOL    HW2 1809   2.141   1.905   2.160  1.5708  0.6748 -3.2381
  604SOL     OW 1810   1.522   1.248   1.640  0.3937  0.1845 -0.3744
  604SOL    HW1 1811   1.518   1.152   1.638  1.3858  0.0682  1.5023
  604SOL    HW2 1812   1.579   1.271   1.567 -1.1003 -0.5231 -1.8274
  605SOL     OW 1813   0.598   0.508   2.721 -0.4225  0.0793  0.1370
  605SOL    HW1 1814   0.598   0.582   2.782 -1.6031 -0.9141  1.4322
  605SOL    HW2 1815   0.688   0.477   2.721 -0.0428  1.1325  0.0432
  606SOL     OW 1816   2.943   3.079   0.075  0.5381 -0.1522 -0.0700
  606SOL    HW1 1817   2.944   3.012   0.143  0.4471  0.4077  0.4888
  606SOL    HW2 1818   3.029   3.072   0.033  0.8617 -0.0307  0.5674
  607SOL     OW 1819   3.101   2.714   1.176  0.2188  0.2553  0.0380
  607SOL    HW1 1820   3.014   2.676   1.180  0.5929 -0.5742  0.7066
  607SOL    HW2 1821   3.154   2.649   1.130  0.3504  1.0431 -0.9441
  608SOL     OW 1822   1.334   0.307   3.404 -0.1631 -0.2987 -0.6166
  608SOL    HW1 1823   1.240   0.321   3.412 -0.1265  0.1586 -0.9467
  608SOL    HW2 1824   1.366   0.304   3.495 -0.5496 -0.8658 -0.4965
  609SOL     OW 1825   0.545   4.348   3.427  0.1290  0.3444 -0.1131
  609SOL    HW1 1826   0.499   4.371   3.508 -0.8258 -0.1329 -0.5020
  609SOL    HW2 1827   0.550   4.253   3.428 -0.6169  0.2804 -0.9859
  610SOL     OW 1828   3.750   3.520   4.009 -0.1994 -0.2510 -0.3267
  610SOL    HW1 1829   3.829   3.485   3.967  0.1362  0.6751 -0.4755
  610SOL    HW2 1830   3.779   3.544   4.097 -0.6510 -1.1939  0.0925
  611SOL     OW 1831   3.822   2.444   2.151  0.2260 -0.5337 -0.1084
  611SOL    HW1 1832   3.798   2.418   2.062 -0.7054 -2.1583  0.5658
  611SOL    HW2 1833   3.846   2.536   2.144  2.1879 -1.1451 -2.3934
  612SOL     OW 1834   2.170   1.849   3.504 -0.0638  0.0589  0.1534
  612SOL    HW1 1835   2.084   1.862   3.464  0.3447  3.1491  0.0024
  612SOL    HW2 1836   2.151   1.837   3.597 -0.6922  4.3386  0.7631
  613SOL     OW 1837   4.003   3.291   2.684 -0.2546  0.0935  0.6576
  613SOL    HW1 1838   4.074   3.254   2.632 -0.0908  0.2416  0.7747
  613SOL    HW2 1839   4.042   3.308   2.770 -0.5091 -0.1025  0.8136
  614SOL     OW 1840   0.920   0.829   2.221  0.1032 -0.2686 -0.5518
  614SOL    HW1 1841   0.842   0.798   2.268  0.0895  1.6867  0.8489
  614SOL    HW2 1842   0.948   0.753   2.169 -0.1406 -2.4803  2.2757
  615SOL     OW 1843   0.962   4.282   0.360 -0.2877 -0.3885 -0.1938
  615SOL    HW1 1844   0.944   4.194   0.391  3.2144 -0.4755  2.1704
  615SOL    HW2 1845   1.017   4.270   0.282 -0.7433 -0.2663 -0.5377
  616SOL     OW 1846   0.896   4.400   0.697 -0.6131  0.1092 -0.7250
  616SOL    HW1 1847   0.910   4.307   0.680  0.7541  0.5607 -2.3587
  616SOL    HW2 1848   0.952   4.420   0.771 -1.6046 -0.5342  0.2230
  617SOL     OW 1849   0.717   0.556   3.263  0.1672  0.1668 -0.1699
  617SOL    HW1 1850   0.657   0.604   3.321 -0.7549 -0.4940 -0.5595
  617SOL    HW2 1851   0.773   0.624   3.225  0.2237  0.7019  0.8326
  618SOL     OW 1852   2.922   1.448   1.098  0.5354 -0.1413 -0.4587
  618SOL    HW1 1853   2.928   1.476   1.189  0.1916 -0.4821 -0.3233
  618SOL    HW2 1854   3.009   1.461   1.062  0.4087  0.9803 -0.3762
  619SOL     OW 1855   0.717   1.551   1.030  0.5665 -0.5526  0.6052
  619SOL    HW1 1856   0.651   1.620   1.034  0.3251 -0.7349 -0.0340
  619SOL    HW2 1857   0.722   1.517   1.119  1.3341  0.8816  1.1352
  620SOL     OW 1858   2.631   3.036   0.395  0.1757 -0.4066 -0.6073
  620SOL    HW1 1859   2.550   3.061   0.350 -0.1048 -0.0627  0.0846
  620SOL    HW2 1860   2.698   3.092   0.357  0.0043 -0.3554 -0.8384
  621SOL     OW 1861   1.922   4.269   3.862 -0.2962  0.4617 -0.3166
  621SOL    HW1 1862   1.862   4.344   3.869 -0.1531  0.5165  0.5299
  621SOL    HW2 1863   1.983   4.281   3.936 -0.4885 -0.6791  0.0475
  622SOL     OW 1864   0.788   3.140   0.327  0.2150  0.2623  0.1984
  622SOL    HW1 1865   0.751   3.068   0.277  0.0825  0.3406  0.1839
  622SOL    HW2 1866   0.880   3.142   0.301  0.0169  0.6885 -0.5074
  623SOL     OW 1867   2.027   2.955   2.141  0.1557  0.0509  0.4811
  623SOL    HW1 1868   2.062   3.014   2.208 -0.6211  0.7911  0.2549
  623SOL    HW2 1869   2.016   2.871   2.186  0.2281  0.3729  1.1058
  624SOL     OW 1870   3.991   1.931   1.660  0.5793 -0.0908 -0.1356
  624SOL    HW1 1871   3.905   1.926   1.703  1.0484  1.3645  1.0764
  624SOL    HW2 1872   4.016   2.023   1.667  2.1609 -0.4464 -0.6450
  625SOL     OW 1873   0.640   1.682   1.931 -0.3784  0.5682 -0.0716
  625SOL    HW1 1874   0.717   1.712   1.977 -1.0730 -1.3125  2.5689
  625SOL    HW2 1875   0.568   1.736   1.965 -0.6844  0.1423 -0.0248
  626SOL     OW 1876   2.006   2.967   2.780 -0.0997  0.6543  0.0448
  626SOL    HW1 1877   2.027   2.919   2.860 -1.8000 -0.0617  0.0889
  626SOL    HW2 1878   1.932   3.023   2.804  0.2062  1.4033 -0.7018
  627SOL     OW 1879   4.114   0.921   0.564  0.0798  0.2729  0.5943
  627SOL    HW1 1880   4.175   0.958   0.501  1.2984 -1.2418  0.8292
  627SOL    HW2 1881   4.107   0.829   0.539 -1.6006  0.2554  0.9951
  628SOL     OW 1882   2.135   2.932   4.310  0.3573 -0.0197  0.0903
  628SOL    HW1 1883   2.166   2.879   4.383 -0.2942 -1.0526 -0.3530
  628SOL    HW2 1884   2.151   3.022   4.337  0.5101 -0.3978  1.3218
  629SOL     OW 1885   3.482   2.865   1.370 -0.4621 -0.3269 -0.0672
  629SOL    HW1 1886   3.389   2.885   1.362 -0.4595 -0.3958 -0.2729
  629SOL    HW2 1887   3.525   2.921   1.306 -0.4110 -0.6526 -0.3198
  630SOL     OW 1888   4.091   3.329   1.882 -0.3471  0.3122  0.2182
  630SOL    HW1 1889   4.117   3.360   1.795 -1.6632 -0.8152 -0.6142
  630SOL    HW2 1890   4.093   3.234   1.876 -3.3154  0.1414  0.4440
  631SOL     OW 1891   3.321   3.849   3.918  0.5244 -0.2415  0.0697
  631SOL    HW1 1892   3.406   3.811   3.892  1.2896 -0.6599  2.9113
  631SOL    HW2 1893   3.303   3.811   4.004 -2.8305 -0.5365 -0.6242
  632SOL     OW 1894   4.037   2.981   1.619  0.0791  0.2740  0.0572
  632SOL    HW1 1895   3.999   2.995   1.532 -0.5225 -1.4985 -0.0063
  632SOL    HW2 1896   4.000   2.897   1.648  0.0356  0.9603  2.1528
  633SOL     OW 1897   1.829   2.988   1.046  0.4738 -0.4225  0.0513
  633SOL    HW1 1898   1.905   2.930   1.045  0.7237 -0.0970 -0.5064
  633SOL    HW2 1899   1.774   2.955   0.975  0.5588 -0.0555 -0.1851
  634SOL     OW 1900   3.154   3.219   1.689  0.0134 -0.2141 -0.0363
  634SOL    HW1 1901   3.182   3.224   1.780  0.7646 -2.0907 -0.1341
  634SOL    HW2 1902   3.062   3.248   1.691 -0.2192 -0.9443  1.4538
  635SOL     OW 1903   3.136   3.447   0.263  0.0427 -0.4141 -0.7127
  635SOL    HW1 1904   3.168   3.537   0.255  1.1291 -0.7006  0.0723
  635SOL    HW2 1905   3.043   3.456   0.284  0.1893  0.5399 -0.4247
  636SOL     OW 1906   2.840   0.482   1.837 -0.0684  0.0035 -0.2176
  636SOL    HW1 1907   2.919   0.487   1.785  0.6361  0.7867  0.8754
  636SOL    HW2 1908   2.768   0.485   1.774  0.7543  0.5993 -1.1367
  637SOL     OW 1909   1.630   1.774   3.218  0.2965  0.2772  0.1686
  637SOL    HW1 1910   1.689   1.700   3.204 -0.6003  0.0832 -3.8657
  637SOL    HW2 1911   1.553   1.736   3.260  0.1310 -1.0102 -1.2177
  638SOL     OW 1912   0.263   0.784   1.756 -0.0320  0.3373 -0.6828
  638SOL    HW1 1913   0.233   0.859   1.808 -0.2366 -1.0431  1.3161
  638SOL    HW2 1914   0.317   0.733   1.817  4.0469  1.1564 -3.2616
  639SOL     OW 1915   3.805   0.064   0.810  0.8302 -0.2808  0.0951
  639SOL    HW1 1916   3.851  -0.014   0.778 -0.4043 -1.3552  0.8169
  639SOL    HW2 1917   3.728   0.071   0.754  0.2213 -0.4139  0.8906
  640SOL     OW 1918   4.005   2.196   3.741  0.3601  0.3738 -0.5993
  640SOL    HW1 1919   4.032   2.116   3.784  2.1513  0.6206 -1.1662
  640SOL    HW2 1920   3.984   2.170   3.652 -0.4957  0.3257 -0.3946
  641SOL     OW 1921   3.954   2.474   4.233 -0.0171 -0.0707 -0.7678
  641SOL    HW1 1922   4.009   2.532   4.180  0.7889 -1.0884 -1.0901
  641SOL    HW2 1923   3.864   2.500   4.213  0.3136  0.4016 -1.6639
  642SOL     OW 1924   1.554   0.698   0.748  0.2996 -0.2997 -0.0289
  642SOL    HW1 1925   1.533   0.616   0.704 -0.2110 -0.8365  1.1968
  642SOL    HW2 1926   1.613   0.673   0.819  0.8388  0.5148 -0.1689
  643SOL     OW 1927   0.535   1.845   2.421  0.2955  0.4038 -0.5160
  643SOL    HW1 1928   0.525   1.889   2.505  1.1455 -0.0747 -0.1560
  643SOL    HW2 1929   0.447   1.815   2.399 -0.0157  0.9467 -0.0326
  644SOL     OW 1930   3.518   4.471   3.744  0.3777  0.6248 -0.1988
  644SOL    HW1 1931   3.571   4.409   3.794  1.7793  1.5249 -0.5209
  644SOL    HW2 1932   3.507   4.430   3.658  1.8767  1.0888 -0.6358
  645SOL     OW 1933   3.703   1.157   0.045 -0.0010 -0.2960  0.1891
  645SOL    HW1 1934   3.649   1.203  -0.019 -0.0045 -0.9097 -0.2540
  645SOL    HW2 1935   3.640   1.130   0.113 -0.7483 -3.1800 -1.5169
  646SOL     OW 1936   0.477   4.330   1.203  0.5737 -0.0176 -0.3817
  646SOL    HW1 1937   0.554   4.376   1.168  1.0386 -1.2174 -0.9958
  646SOL    HW2 1938   0.508   4.241   1.219 -1.2340 -1.2536 -2.9298
  647SOL     OW 1939   2.637   3.345   1.509  0.1758 -0.2224  0.3450
  647SOL    HW1 1940   2.662   3.279   1.443  0.5714 -0.0923  0.3629
  647SOL    HW2 1941   2.557   3.384   1.474  1.0692  0.7318 -0.6958
  648SOL     OW 1942   0.334   2.131   1.380 -0.0570  0.0890  0.0187
  648SOL    HW1 1943   0.253   2.083   1.360 -0.3477  0.2789  0.7013
  648SOL    HW2 1944   0.312   2.183   1.457  0.7167  0.1511  0.2038
  649SOL     OW 1945   0.997   2.063   3.158 -0.5276  0.2749  0.7749
  649SOL    HW1 1946   0.986   1.972   3.131 -0.9377  0.1279  1.4375
  649SOL    HW2 1947   1.042   2.059   3.242 -1.6649  0.6319  1.4170
  650SOL     OW 1948   1.268   1.293   2.674 -0.3614 -1.3006 -0.2186
  650SOL    HW1 1949   1.193   1.332   2.630  0.4391 -0.7716 -1.1739
  650SOL    HW2 1950   1.317   1.367   2.709  0.0552 -1.5911 -0.1796
  651SOL     OW 1951   1.921   4.477   0.977 -0.3028  0.3169 -0.2007
  651SOL    HW1 1952   1.931   4.514   1.065 -0.7048 -0.3051  0.1188
  651SOL    HW2 1953   1.981   4.402   0.976 -1.1680 -0.3977 -0.0298
  652SOL     OW 1954   3.451   3.405   0.454 -0.0540 -0.1479 -0.1157
  652SOL    HW1 1955   3.366   3.382   0.490 -0.6401  1.5767 -0.2804
  652SOL    HW2 1956   3.505   3.327   0.466 -1.4157 -0.9934  0.7316
  653SOL     OW 1957   1.262   1.429   1.586  0.2643  0.3784  0.0098
  653SOL    HW1 1958   1.181   1.403   1.630 -0.3082  1.3485 -0.4261
  653SOL    HW2 1959   1.319   1.353   1.595 -0.6257 -0.2676  0.4797
  654SOL     OW 1960   2.817   0.911   1.442  0.2270  0.4314  0.1603
  654SOL    HW1 1961   2.822   1.003   1.469  0.3765 -0.2935  2.8350
  654SOL    HW2 1962   2.864   0.863   1.510 -1.1641 -1.7886 -0.3457
  655SOL     OW 1963   3.781   2.324   3.841 -0.3518 -0.0630  0.7528
  655SOL    HW1 1964   3.871   2.301   3.820 -0.2568 -0.1151  1.2056
  655SOL    HW2 1965   3.750   2.253   3.897 -1.0383 -0.6074 -0.2746
  656SOL     OW 1966   3.963   2.406   4.499 -0.2508  0.6615  0.0663
  656SOL    HW1 1967   3.869   2.401   4.513 -0.2688  1.6480  0.4068
  656SOL    HW2 1968   3.973   2.406   4.404 -0.6304  1.0529  0.0240
  657SOL     OW 1969   0.993   2.981   1.304  0.1285 -0.0564 -0.8292
  657SOL    HW1 1970   1.034   2.912   1.356 -0.5429  0.7568  0.8596
  657SOL    HW2 1971   1.052   2.994   1.231  0.6087 -1.9545 -0.8530
  658SOL     OW 1972   2.733   3.373   1.752  0.1561  1.0137 -0.0581
  658SOL    HW1 1973   2.744   3.460   1.790 -0.6201  1.0841  0.0046
  658SOL    HW2 1974   2.722   3.389   1.658 -2.1562  1.1776  0.1828
  659SOL     OW 1975   2.810   1.411   3.433 -0.2708 -0.0617  0.5400
  659SOL    HW1 1976   2.725   1.373   3.452  0.7233 -2.7152  0.0701
  659SOL    HW2 1977   2.849   1.428   3.519 -1.3530  1.5730  0.7658
  660SOL     OW 1978   3.943   2.593   3.952  0.4509  0.0206  0.5740
  660SOL    HW1 1979   3.890   2.518   3.924 -1.7098  1.3408  0.9184
  660SOL    HW2 1980   3.900   2.669   3.913  1.1008  1.3109  2.2493
  661SOL     OW 1981   0.758   4.298   1.538 -0.2285 -0.4606  0.1141
  661SOL    HW1 1982   0.748   4.383   1.580 -0.3349 -0.2526 -0.3299
  661SOL    HW2 1983   0.670   4.275   1.509  0.1704  0.4003 -1.9216
  662SOL     OW 1984   2.132   0.221   0.199 -0.0333  0.3474 -0.5336
  662SOL    HW1 1985   2.043   0.243   0.224 -0.2839 -2.0545  1.0274
  662SOL    HW2 1986   2.178   0.305   0.195 -2.3101  1.6268 -1.3523
  663SOL     OW 1987   2.390   3.166   2.039 -0.4696 -0.0491 -0.0393
  663SOL    HW1 1988   2.392   3.201   1.950  0.6667  0.9211  0.3423
  663SOL    HW2 1989   2.385   3.244   2.095  1.6269 -0.4645  0.8205
  664SOL     OW 1990   1.330   0.910   3.652  0.5214 -0.1684 -0.5044
  664SOL    HW1 1991   1.296   0.840   3.597 -2.2067 -0.2041  1.0237
  664SOL    HW2 1992   1.287   0.989   3.620  1.1190  0.2917 -0.1991
  665SOL     OW 1993   2.155   3.336   1.647 -0.3586 -0.1059 -0.1941
  665SOL    HW1 1994   2.231   3.390   1.668  0.6988 -0.3294 -3.0201
  665SOL    HW2 1995   2.182   3.247   1.670  0.5066 -0.2627 -1.7278
  666SOL     OW 1996   1.917   0.831   1.858 -0.7011  0.3294  0.3523
  666SOL    HW1 1997   1.864   0.909   1.840 -0.5898  0.0880 -1.1429
  666SOL    HW2 1998   1.861   0.757   1.834 -0.4473 -0.0140  0.8014
  667SOL     OW 1999   2.669   0.510   1.604  0.1798  0.2164 -0.0418
  667SOL    HW1 2000   2.704   0.553   1.526 -1.1055  0.7731 -0.3412
  667SOL    HW2 2001   2.606   0.447   1.571 -2.1288  2.0617  0.5388
  668SOL     OW 2002   2.836   0.197   0.599 -0.4297  0.4457 -0.8406
  668SOL    HW1 2003   2.896   0.256   0.645  0.4029 -1.8279  1.2250
  668SOL    HW2 2004   2.888   0.161   0.528 -0.4890  1.1080 -1.2272
  669SOL     OW 2005   1.641   1.592   3.731  0.4220  0.2793 -0.3310
  669SOL    HW1 2006   1.694   1.605   3.809 -1.2942 -1.3084  1.1859
  669SOL    HW2 2007   1.693   1.534   3.676  1.0758  0.3041  0.2516
  670SOL     OW 2008   0.554   0.200   0.822 -0.0633 -0.1297 -0.2442
  670SOL    HW1 2009   0.463   0.211   0.849 -0.0904 -0.3650 -0.2386
  670SOL    HW2 2010   0.605   0.236   0.896 -0.1593  2.2431 -1.2483
  671SOL     OW 2011   3.769   1.559   4.339  0.6563  0.4762  0.6252
  671SOL    HW1 2012   3.732   1.647   4.344  0.6133  0.6459 -1.7237
  671SOL    HW2 2013   3.823   1.551   4.417  0.8555  2.6776  0.7638
  672SOL     OW 2014   2.103   3.262   2.029  0.2546  0.4832 -0.4599
  672SOL    HW1 2015   2.028   3.203   2.019  0.9003 -0.4700  0.1674
  672SOL    HW2 2016   2.179   3.204   2.030  0.8665  1.2610  0.8081
  673SOL     OW 2017   2.701   2.464   0.452  0.0081  0.0453  0.3717
  673SOL    HW1 2018   2.635   2.532   0.443 -0.4272 -0.4825 -0.6099
  673SOL    HW2 2019   2.778   2.509   0.484  0.1392  1.2677 -1.4955
  674SOL     OW 2020   1.575   3.173   1.933 -0.2184 -0.3462  0.2984
  674SOL    HW1 2021   1.612   3.134   1.854 -0.9612 -1.6204  0.5585
  674SOL    HW2 2022   1.646   3.171   1.996  0.3276  0.5191 -0.2727
  675SOL     OW 2023   4.143   2.704   1.049  0.1254  0.1518 -0.8714
  675SOL    HW1 2024   4.171   2.652   0.974 -0.1960 -0.1967 -0.7546
  675SOL    HW2 2025   4.054   2.673   1.067  0.3529 -0.0718 -0.0896
  676SOL     OW 2026   1.028   1.883   0.234 -0.0431 -0.7220 -0.3631
  676SOL    HW1 2027   0.995   1.794   0.246  0.8584 -0.9960  0.1957
  676SOL    HW2 2028   1.004   1.928   0.315  1.0755 -0.9760  0.1280
  677SOL     OW 2029   3.788   0.261   2.845 -0.1182 -0.7166  0.0019
  677SOL    HW1 2030   3.883   0.267   2.856  0.1438  1.5163 -2.4508
  677SOL    HW2 2031   3.752   0.328   2.904 -0.2092 -1.7269  1.1086
  678SOL     OW 2032   1.864   1.785   1.194 -0.4930 -0.2143  0.3351
  678SOL    HW1 2033   1.790   1.782   1.133 -0.2549 -2.0306  0.0829
  678SOL    HW2 2034   1.846   1.716   1.257  1.6096 -1.6574 -0.5190
  679SOL     OW 2035   1.245   1.059   0.269  0.2450 -0.5475 -0.8529
  679SOL    HW1 2036   1.249   1.038   0.362 -1.5800  1.9972 -0.0977
  679SOL    HW2 2037   1.173   1.006   0.235 -1.7221  1.3654  0.1414
  680SOL     OW 2038   4.104   0.279   4.310 -0.2866  0.1052  0.4660
  680SOL    HW1 2039   4.177   0.340   4.299  0.4437 -0.7843  0.2455
  680SOL    HW2 2040   4.143   0.192   4.296 -1.5492 -0.3455 -0.4185
  681SOL     OW 2041   1.577   0.047   2.443 -0.0080 -0.3656 -0.2392
  681SOL    HW1 2042   1.533   0.111   2.498 -0.1972 -1.5637  1.0481
  681SOL    HW2 2043   1.652   0.017   2.495  0.2724 -0.9403 -0.9487
  682SOL     OW 2044   0.247   4.193   3.045 -0.0564  0.0937  0.2263
  682SOL    HW1 2045   0.158   4.183   3.012  0.2736  0.5819 -0.8533
  682SOL    HW2 2046   0.274   4.104   3.069 -1.0337  0.0288  1.1361
  683SOL     OW 2047   3.806   1.930   0.998 -0.7380  0.4747 -0.1481
  683SOL    HW1 2048   3.755   2.007   1.022 -1.1243  0.1557  0.0649
  683SOL    HW2 2049   3.884   1.934   1.053 -1.5700 -0.2038  1.1253
  684SOL     OW 2050   3.202   1.431   3.021 -0.6990 -0.3514 -0.5211
  684SOL    HW1 2051   3.152   1.357   3.055 -2.1311 -0.2566 -2.2287
  684SOL    HW2 2052   3.154   1.508   3.052 -0.7548 -0.2250 -0.9083
  685SOL     OW 2053   1.208   1.462   2.380 -0.2172 -0.1696 -0.6049
  685SOL    HW1 2054   1.132   1.440   2.435  0.0128 -0.8346 -0.5549
  685SOL    HW2 2055   1.169   1.487   2.296 -0.5817  0.9795 -0.1251
  686SOL     OW 2056   4.080   2.724   3.734 -0.0659 -0.1763 -0.0866
  686SOL    HW1 2057   4.095   2.649   3.676 -0.2337 -0.0227 -0.3341
  686SOL    HW2 2058   4.035   2.688   3.809 -0.7630 -0.2145 -0.5156
  687SOL     OW 2059   3.454   1.545   3.879 -0.1759 -0.1351 -0.1835
  687SOL    HW1 2060   3.463   1.482   3.807  1.2338 -0.1844  0.0174
  687SOL    HW2 2061   3.396   1.613   3.844  0.1960 -0.3454 -1.2351
  688SOL     OW 2062   0.613   0.435   4.440 -0.0966  0.0926  0.8937
  688SOL    HW1 2063   0.691   0.402   4.396 -1.0748 -0.3388 -0.5793
  688SOL    HW2 2064   0.593   0.517   4.394 -0.2373  0.4474  1.5795
  689SOL     OW 2065   2.486   3.771   1.853 -0.4937 -0.4811 -0.5157
  689SOL    HW1 2066   2.426   3.778   1.927 -0.2200  0.4308 -0.3689
  689SOL    HW2 2067   2.436   3.802   1.777 -0.4718 -0.5190 -0.5459
  690SOL     OW 2068   0.289   2.425   3.691  0.4215  0.3118  0.1502
  690SOL    HW1 2069   0.216   2.452   3.746 -0.3048  0.7093 -0.9809
  690SOL    HW2 2070   0.251   2.366   3.627  0.9076  1.1873 -0.9874
  691SOL     OW 2071   2.160   3.165   0.725 -0.6357  0.3215 -0.4274
  691SOL    HW1 2072   2.168   3.176   0.630 -0.5152  1.5904 -0.2882
  691SOL    HW2 2073   2.150   3.071   0.738  0.6569 -0.0085 -1.6098
  692SOL     OW 2074   2.424   0.125   1.333  0.5302  0.1472  0.6048
  692SOL    HW1 2075   2.487   0.081   1.276  1.2647  2.1738 -0.2254
  692SOL    HW2 2076   2.339   0.105   1.293  0.9646  0.7480 -0.7031
  693SOL     OW 2077   3.860   4.330   0.608 -0.2831 -0.3151  0.2688
  693SOL    HW1 2078   3.852   4.386   0.531 -0.0485  1.2652  1.3290
  693SOL    HW2 2079   3.955   4.326   0.624 -0.3858  0.5701  1.2597
  694SOL     OW 2080   1.413   2.962   1.208  0.1366  0.3900  0.2737
  694SOL    HW1 2081   1.457   2.949   1.292 -2.9342  0.5513  2.0538
  694SOL    HW2 2082   1.404   2.874   1.171 -2.0260 -0.2552  2.1402
  695SOL     OW 2083   3.921   4.242   1.915  0.6313  0.2199  0.6555
  695SOL    HW1 2084   3.918   4.322   1.967  1.0880  1.1452 -0.7021
  695SOL    HW2 2085   3.984   4.186   1.961  1.3172  1.1630  0.8915
  696SOL     OW 2086   1.542   3.346   0.674  0.4878  0.1196 -0.0866
  696SOL    HW1 2087   1.451   3.330   0.696  0.5649  1.8937  1.8301
  696SOL    HW2 2088   1.552   3.441   0.678  2.8257 -0.1004  1.7844
  697SOL     OW 2089   2.790   3.100   2.804 -0.1078 -0.0327  0.8582
  697SOL    HW1 2090   2.852   3.036   2.771 -0.7908 -0.5516  0.5505
  697SOL    HW2 2091   2.756   3.062   2.885  0.5342  0.6022  1.4395
  698SOL     OW 2092   3.294   3.394   4.037 -0.3194 -0.4398  0.1609
  698SOL    HW1 2093   3.219   3.428   4.086 -2.1218 -3.3109 -0.3509
  698SOL    HW2 2094   3.293   3.444   3.955 -0.6647  0.6481  0.7970
  699SOL     OW 2095   2.548   2.721   2.139 -0.4444  0.3216  0.2855
  699SOL    HW1 2096   2.610   2.712   2.212  2.1202 -1.1426 -1.9101
  699SOL    HW2 2097   2.554   2.812   2.114 -0.1358  0.4746  0.8817
  700SOL     OW 2098   3.494   2.857   0.199  0.4786  0.7293 -0.1776
  700SOL    HW1 2099   3.557   2.804   0.150 -0.9535 -0.6664 -0.6216
  700SOL    HW2 2100   3.445   2.904   0.132 -1.2564 -0.9224 -0.1635
  701SOL     OW 2101   1.225   2.151   4.100 -0.2808  0.1832 -0.0939
  701SOL    HW1 2102   1.207   2.231   4.149  1.1372 -0.1931  1.1096
  701SOL    HW2 2103   1.148   2.096   4.115 -0.4833  0.6305  0.5329
  702SOL     OW 2104   1.583   0.895   4.156  0.2740 -0.4945  0.3987
  702SOL    HW1 2105   1.581   0.800   4.146  0.6403 -0.3380 -1.6053
  702SOL    HW2 2106   1.670   0.914   4.192  0.6376 -0.8618 -0.2646
  703SOL     OW 2107   3.840   1.278   3.970 -0.0482  0.4570 -0.2277
  703SOL    HW1 2108   3.760   1.285   4.021 -0.4252 -0.0077 -0.7397
  703SOL    HW2 2109   3.873   1.368   3.965 -1.0083  0.7947 -0.7503
  704SOL     OW 2110   0.094   1.014   1.227  0.4597 -0.5136  0.2802
  704SOL    HW1 2111   0.009   0.980   1.255  1.1760 -2.7563 -0.0624
  704SOL    HW2 2112   0.087   1.019   1.131  0.8655 -1.2015  0.2095
  705SOL     OW 2113   3.714   2.098   3.997  0.1429  0.3674 -0.5408
  705SOL    HW1 2114   3.665   2.017   4.004 -1.0847  1.0978 -0.3984
  705SOL    HW2 2115   3.687   2.149   4.073  1.1993  0.7658 -0.4102
  706SOL     OW 2116   3.510   4.004   2.604 -0.3667  0.4975  0.1339
  706SOL    HW1 2117   3.421   3.969   2.604 -0.1199 -0.1411  0.2742
  706SOL    HW2 2118   3.509   4.074   2.669 -0.2271 -0.9203  1.7353
  707SOL     OW 2119   3.919   4.337   3.395 -0.2627  0.5372  0.0308
  707SOL    HW1 2120   4.000   4.366   3.352  0.6028  0.5378  1.5541
  707SOL    HW2 2121   3.850   4.390   3.355  0.1110 -0.9956 -2.8805
  708SOL     OW 2122   3.864   4.142   0.404 -0.5139  0.3557 -0.0900
  708SOL    HW1 2123   3.872   4.232   0.435 -1.6940  0.8879 -1.1888
  708SOL    HW2 2124   3.915   4.090   0.465  2.9305  2.1224 -1.2219
  709SOL     OW 2125   1.704   2.010   3.357 -0.1841  0.0064  0.1615
  709SOL    HW1 2126   1.698   1.949   3.284 -0.4549  1.1711 -0.8209
  709SOL    HW2 2127   1.673   1.960   3.433 -0.1997 -1.1250 -0.5693
  710SOL     OW 2128   2.312   0.904   0.729 -0.2220  0.3535 -0.0254
  710SOL    HW1 2129   2.348   0.816   0.745 -0.0996  0.1433 -1.3542
  710SOL    HW2 2130   2.356   0.959   0.793 -1.7081 -0.8454  2.1564
  711SOL     OW 2131   3.113   2.236   0.593 -0.4264 -0.0501  0.5275
  711SOL    HW1 2132   3.030   2.271   0.625 -0.1348  1.8750 -0.6619
  711SOL    HW2 2133   3.089   2.186   0.515 -0.4929  0.4997  0.1869
  712SOL     OW 2134   3.535   4.456   2.480 -0.1330  0.0406  0.0704
  712SOL    HW1 2135   3.512   4.472   2.572 -2.0402 -1.7207 -0.0312
  712SOL    HW2 2136   3.457   4.481   2.431  0.8849  0.9935 -1.1146
  713SOL     OW 2137   2.243   0.785   0.265 -0.0965  0.4793  0.1492
  713SOL    HW1 2138   2.270   0.732   0.340  1.4703 -0.0984 -0.7662
  713SOL    HW2 2139   2.286   0.869   0.278  0.6489  0.1897 -0.3574
  714SOL     OW 2140   3.079   2.454   1.900  0.6650 -0.5934 -0.4213
  714SOL    HW1 2141   3.138   2.496   1.838  1.0254  0.3538  0.5308
  714SOL    HW2 2142   3.130   2.380   1.935  0.9972 -0.2713 -0.2109
  715SOL     OW 2143   3.002   1.869   1.723  0.4573  0.0499  0.2129
  715SOL    HW1 2144   2.969   1.789   1.763 -0.8236 -0.9557 -2.6087
  715SOL    HW2 2145   2.939   1.937   1.748  1.4946  0.2538  2.5241
  716SOL     OW 2146   2.457   4.156   4.292  0.0195  0.4795  0.4942
  716SOL    HW1 2147   2.428   4.229   4.348 -0.6183  1.0447 -0.5424
  716SOL    HW2 2148   2.501   4.199   4.219  1.1622 -0.2717  0.7200
  717SOL     OW 2149   0.069   0.225   0.718 -0.0702  0.5588 -0.1219
  717SOL    HW1 2150   0.015   0.145   0.718 -0.6838  0.9705  0.4874
  717SOL    HW2 2151   0.032   0.278   0.647 -2.0244  1.8552  1.7573
  718SOL     OW 2152   0.694   0.144   3.273 -0.4535 -0.5494 -0.1220
  718SOL    HW1 2153   0.788   0.152   3.287 -0.6419 -0.7025  1.3147
  718SOL    HW2 2154   0.686   0.124   3.179  0.9236 -0.4103 -0.2932
  719SOL     OW 2155   1.204   0.641   1.153 -0.4817 -0.1310 -0.0065
  719SOL    HW1 2156   1.217   0.601   1.067  0.2847 -0.3990  0.2253
  719SOL    HW2 2157   1.109   0.641   1.165 -0.6414  0.4237 -1.0868
  720SOL     OW 2158   3.846   2.973   0.229  0.3379  0.0199 -0.1856
  720SOL    HW1 2159   3.932   2.983   0.269  0.4958 -0.3808 -0.4181
  720SOL    HW2 2160   3.860   2.912   0.157 -0.3794 -1.0896  0.5778
  721SOL     OW 2161   3.408   0.028   2.724  0.2975  0.3235 -0.1496
  721SOL    HW1 2162   3.334  -0.029   2.743  1.7844 -0.9387  2.2545
  721SOL    HW2 2163   3.378   0.082   2.651 -2.8069 -0.4344  0.4331
  722SOL     OW 2164   0.315   3.535   4.331 -0.0388 -0.3372 -0.2747
  722SOL    HW1 2165   0.363   3.599   4.278 -0.3799  0.2332  0.1002
  722SOL    HW2 2166   0.282   3.472   4.267 -2.0650  1.3580 -1.0219
  723SOL     OW 2167   0.214   0.964   0.712  0.2957 -0.2181 -0.6316
  723SOL    HW1 2168   0.275   1.016   0.764 -1.4362 -0.1085  1.4369
  723SOL    HW2 2169   0.256   0.955   0.627  3.5980 -0.9304  0.9300
  724SOL     OW 2170   2.311   3.258   2.462 -0.1177  0.0391  0.1922
  724SOL    HW1 2171   2.237   3.311   2.492 -1.3721 -1.7386  0.4132
  724SOL    HW2 2172   2.331   3.202   2.537 -1.0808 -2.1133 -1.0571
  725SOL     OW 2173   2.144   3.615   4.214  0.5190  0.1281 -0.2586
  725SOL    HW1 2174   2.187   3.694   4.250 -1.3658  1.8005 -1.4748
  725SOL    HW2 2175   2.141   3.631   4.120 -1.1904 -0.7384 -0.3735
  726SOL     OW 2176   4.121   2.194   1.270 -0.0064  0.2498  0.1560
  726SOL    HW1 2177   4.053   2.261   1.266 -0.9102 -0.5272  1.4925
  726SOL    HW2 2178   4.085   2.121   1.219  0.2947  0.1976  0.0116
  727SOL     OW 2179   1.638   0.339   4.204 -0.4243  0.0196  0.4885
  727SOL    HW1 2180   1.585   0.263   4.181 -0.1425  0.0286 -0.2373
  727SOL    HW2 2181   1.711   0.303   4.255  0.1143 -0.3193 -0.4844
  728SOL     OW 2182   3.939   3.091   0.603 -0.1998 -0.1602 -0.5307
  728SOL    HW1 2183   4.030   3.113   0.584 -0.1284 -0.0115 -0.0082
  728SOL    HW2 2184   3.943   3.008   0.650 -0.2823  0.2039  0.1342
  729SOL     OW 2185   3.828   3.590   4.257  0.1243  0.0445  0.0670
  729SOL    HW1 2186   3.859   3.680   4.264  0.4350  0.0060 -0.6587
  729SOL    HW2 2187   3.808   3.563   4.346  0.4344  0.6940  0.3315
  730SOL     OW 2188   1.262   1.475   0.349  0.7961 -0.5704  0.0973
  730SOL    HW1 2189   1.324   1.422   0.400  1.2669  1.3389  1.6670
  730SOL    HW2 2190   1.301   1.563   0.349 -0.7934  0.1777 -0.8829
  731SOL     OW 2191   1.176   0.526   1.858  0.2788 -0.3771  0.3951
  731SOL    HW1 2192   1.263   0.541   1.895  1.4215 -0.2689 -2.1186
  731SOL    HW2 2193   1.164   0.431   1.862  0.2512 -0.3419  1.2641
  732SOL     OW 2194   1.581   1.805   1.595  0.2873  0.7562 -0.0803
  732SOL    HW1 2195   1.608   1.846   1.513  0.0257  0.9917 -0.0511
  732SOL    HW2 2196   1.489   1.831   1.606 -0.1511 -0.5445 -0.4986
  733SOL     OW 2197   2.008   3.904   2.817  0.2162  0.3217  0.1464
  733SOL    HW1 2198   1.930   3.959   2.811 -0.8599 -1.1784 -0.1218
  733SOL    HW2 2199   1.991   3.831   2.758  1.5466 -0.3614  0.5701
  734SOL     OW 2200   0.797   1.307   2.484  0.8375  0.2092  0.9079
  734SOL    HW1 2201   0.703   1.322   2.499  0.8815  0.0128  1.4084
  734SOL    HW2 2202   0.803   1.214   2.464  0.5714  0.7528 -2.1417
  735SOL     OW 2203   2.248   0.332   3.146  0.1887 -0.1088 -0.4596
  735SOL    HW1 2204   2.322   0.330   3.207 -0.5150  0.2974  0.4116
  735SOL    HW2 2205   2.263   0.410   3.092  0.7279 -0.3833 -0.7166
  736SOL     OW 2206   0.290   2.502   4.336 -0.5056 -0.3826  0.3994
  736SOL    HW1 2207   0.332   2.417   4.338  0.8817  0.2122 -1.1179
  736SOL    HW2 2208   0.277   2.525   4.428  0.3839 -1.5988  0.8492
  737SOL     OW 2209   2.224   1.144   1.667 -0.7270 -0.4054  0.6542
  737SOL    HW1 2210   2.319   1.137   1.675 -0.2440  1.3325 -2.2401
  737SOL    HW2 2211   2.194   1.054   1.652  0.6821 -0.7753 -0.0344
  738SOL     OW 2212   3.377   0.530  -0.012  0.0731  0.0344 -0.3562
  738SOL    HW1 2213   3.419   0.459   0.038 -0.0724 -1.1874 -1.8964
  738SOL    HW2 2214   3.426   0.608   0.013  0.7225 -0.7109  0.8448
  739SOL     OW 2215   0.527   0.096   2.469  0.1874 -0.2570  0.1087
  739SOL    HW1 2216   0.459   0.073   2.407  0.3833  1.5886 -0.8539
  739SOL    HW2 2217   0.495   0.176   2.512  1.2482  0.0128  0.4339
  740SOL     OW 2218   0.608   2.597   1.777  0.5145  0.1907  0.2684
  740SOL    HW1 2219   0.632   2.540   1.704  0.0887  0.2200  0.0993
  740SOL    HW2 2220   0.688   2.607   1.827  0.4735 -1.0029  0.6102
  741SOL     OW 2221   3.101   3.050   3.457 -0.4083  0.3629  0.3619
  741SOL    HW1 2222   3.151   2.971   3.438 -0.5769  0.3495 -0.0285
  741SOL    HW2 2223   3.163   3.122   3.446  0.3692  0.1838  2.8467
  742SOL     OW 2224   3.159   4.146   1.164  0.1089 -0.1010  0.4803
  742SOL    HW1 2225   3.187   4.097   1.087 -1.6568 -0.1241 -0.2167
  742SOL    HW2 2226   3.180   4.237   1.142  0.2802 -0.1875  0.2782
  743SOL     OW 2227   1.493   0.184   3.590  0.0734 -0.0829  0.0715
  743SOL    HW1 2228   1.519   0.217   3.676  0.5592 -1.1366  0.3442
  743SOL    HW2 2229   1.550   0.229   3.528 -0.2344  0.6289  0.3016
  744SOL     OW 2230   4.305   1.923   2.408  0.6126  0.4635  0.5995
  744SOL    HW1 2231   4.272   2.000   2.453 -2.0287 -1.1275  1.6389
  744SOL    HW2 2232   4.232   1.860   2.411  2.0067 -1.4572 -1.7187
  745SOL     OW 2233   3.261   0.808   1.570 -0.5395 -0.3729  0.0242
  745SOL    HW1 2234   3.305   0.842   1.648 -0.1353 -1.7061  0.4071
  745SOL    HW2 2235   3.315   0.733   1.543 -0.5591  0.1613 -1.6532
  746SOL     OW 2236   1.751   2.152   0.651 -0.2516 -0.3830  0.4806
  746SOL    HW1 2237   1.751   2.204   0.571 -0.1547 -1.7246 -0.4177
  746SOL    HW2 2238   1.795   2.208   0.716 -4.8003  2.9834  1.1930
  747SOL     OW 2239   0.592   0.887   2.459 -0.6843 -0.1188 -0.0036
  747SOL    HW1 2240   0.617   0.801   2.428  0.3491  0.4125 -0.6814
  747SOL    HW2 2241   0.667   0.943   2.439 -0.8449  0.6950  1.5007
  748SOL     OW 2242   3.326   2.548   3.497  0.5348  0.1200  0.0236
  748SOL    HW1 2243   3.309   2.484   3.428  1.8098  1.7061 -1.8773
  748SOL    HW2 2244   3.410   2.587   3.473  1.1129  0.6665  2.5921
  749SOL     OW 2245   2.858   2.881   3.962 -0.2623  0.1249  0.2877
  749SOL    HW1 2246   2.815   2.796   3.963  1.3249 -0.7152  0.0682
  749SOL    HW2 2247   2.931   2.871   3.901 -0.5498  1.9200 -0.4266
  750SOL     OW 2248   1.256   2.401   4.196  0.0987  0.0180  0.5389
  750SOL    HW1 2249   1.176   2.453   4.190 -0.3468 -0.7338 -0.6060
  750SOL    HW2 2250   1.280   2.404   4.288 -0.8951  0.7855  0.7958
  751SOL     OW 2251   0.502   0.153   4.302  0.0122 -0.4322 -0.2066
  751SOL    HW1 2252   0.480   0.236   4.259  0.1662  0.7177  1.8078
  751SOL    HW2 2253   0.598   0.151   4.303  0.1528  1.2926  2.9943
  752SOL     OW 2254   0.881   2.742   3.716  0.4564 -0.1154 -0.0074
  752SOL    HW1 2255   0.940   2.807   3.677 -0.1903  1.2002  1.1023
  752SOL    HW2 2256   0.907   2.739   3.808  0.0566 -0.9974  0.0850
  753SOL     OW 2257   0.870   3.329   3.725 -0.0983 -0.2374 -0.1243
  753SOL    HW1 2258   0.779   3.353   3.711 -0.4867 -1.6564 -0.1359
  753SOL    HW2 2259   0.880   3.327   3.820 -0.0753 -0.0596 -0.1233
  754SOL     OW 2260   0.169   0.558   2.276 -0.2843  0.5460 -0.0663
  754SOL    HW1 2261   0.230   0.619   2.235 -1.5621  1.9244 -0.0028
  754SOL    HW2 2262   0.094   0.556   2.216 -0.2254 -1.0639 -0.1182
  755SOL     OW 2263   3.169   2.032   1.016  0.3137 -0.5561 -0.6273
  755SOL    HW1 2264   3.233   1.963   1.034  0.2260 -1.0345 -2.0653
  755SOL    HW2 2265   3.093   1.986   0.979 -0.2141  0.1840 -0.4946
  756SOL     OW 2266   0.902   0.818   2.717  0.0112  0.2481 -0.1454
  756SOL    HW1 2267   0.937   0.760   2.650 -0.7820  0.3973 -0.7017
  756SOL    HW2 2268   0.812   0.788   2.730  0.3423 -0.1899  1.3198
  757SOL     OW 2269   3.435   4.408   0.165 -0.4892  0.2141 -0.4136
  757SOL    HW1 2270   3.390   4.491   0.151  0.6976  0.9392 -0.0480
  757SOL    HW2 2271   3.442   4.400   0.261 -0.8882 -0.4764 -0.4333
  758SOL     OW 2272   3.000   0.908   3.210  0.2404  0.3559  0.2812
  758SOL    HW1 2273   2.974   0.949   3.292  2.1167  0.9688  0.6182
  758SOL    HW2 2274   3.081   0.862   3.230 -0.8464 -2.0815 -0.5382
  759SOL     OW 2275   2.114   4.116   1.942  0.1564  0.0285 -0.2133
  759SOL    HW1 2276   2.182   4.132   1.876 -2.2375  2.7865 -2.2941
  759SOL    HW2 2277   2.032   4.126   1.894 -1.7698 -1.2955  2.5544
  760SOL     OW 2278   0.379   1.891   2.771  0.3018  0.1183  0.0562
  760SOL    HW1 2279   0.450   1.838   2.807  0.3309  0.2884  0.2517
  760SOL    HW2 2280   0.327   1.830   2.719  0.6979  0.0287 -0.2427
  761SOL     OW 2281   1.201   2.501   2.423  0.0542 -0.2000 -0.2470
  761SOL    HW1 2282   1.215   2.550   2.342 -0.7264  1.1561  0.4080
  761SOL    HW2 2283   1.289   2.489   2.459  0.2750  0.6488 -0.4708
  762SOL     OW 2284   2.049   0.691   3.609  0.0051 -0.7148 -0.4987
  762SOL    HW1 2285   2.118   0.626   3.600  0.1087 -0.5516 -0.8821
  762SOL    HW2 2286   1.990   0.675   3.536  0.6629  0.3759 -1.2865
  763SOL     OW 2287   0.340   0.848   0.443 -0.2736  0.0465  0.3925
  763SOL    HW1 2288   0.397   0.771   0.449 -0.2141  0.0311 -0.3036
  763SOL    HW2 2289   0.401   0.922   0.436 -0.3220  0.2120  1.4243
  764SOL     OW 2290   1.736   3.823   2.660  0.3196 -0.2608  0.5309
  764SOL    HW1 2291   1.750   3.897   2.720  0.1413  0.6288 -0.5079
  764SOL    HW2 2292   1.657   3.846   2.612  0.8617 -0.6297 -0.5473
  765SOL     OW 2293   2.873   1.734   4.179  0.2891 -0.1412 -0.2510
  765SOL    HW1 2294   2.779   1.717   4.177  0.1825  0.5481 -1.1428
  765SOL    HW2 2295   2.906   1.670   4.242 -0.6829 -0.8310 -0.4112
  766SOL     OW 2296   4.021   1.982   1.148  0.2155 -0.1826 -0.4815
  766SOL    HW1 2297   4.099   1.966   1.095  0.7484 -2.7556  0.9173
  766SOL    HW2 2298   4.041   1.942   1.233 -2.0017  0.5602  0.4717
  767SOL     OW 2299   1.903   2.464   2.483 -0.1075 -0.7760 -0.4954
  767SOL    HW1 2300   1.954   2.445   2.561  0.8191  0.4423 -0.7783
  767SOL    HW2 2301   1.965   2.457   2.411 -0.6350 -0.5430 -0.9826
  768SOL     OW 2302   3.992   1.829   1.408  0.2009 -0.1559 -0.2111
  768SOL    HW1 2303   3.992   1.858   1.499 -1.9854  0.0817 -0.2374
  768SOL    HW2 2304   4.038   1.745   1.410 -0.5910 -0.5986  1.2978
  769SOL     OW 2305   0.170   0.317   2.906  0.1800 -0.2984  0.3666
  769SOL    HW1 2306   0.249   0.371   2.907  0.9327 -1.0776 -3.5010
  769SOL    HW2 2307   0.198   0.233   2.869 -2.2065 -1.0455  0.0818
  770SOL     OW 2308   3.518   2.326   0.894  0.2290  0.6745 -0.3555
  770SOL    HW1 2309   3.502   2.398   0.955  2.1725 -0.3516  1.5070
  770SOL    HW2 2310   3.431   2.291   0.874 -0.5132  1.2040  1.6915
  771SOL     OW 2311   3.222   1.262   2.600 -0.0545  0.2314 -0.3636
  771SOL    HW1 2312   3.231   1.174   2.565 -1.0820  0.6347 -1.7529
  771SOL    HW2 2313   3.308   1.302   2.587  0.5854 -0.7189  0.8076
  772SOL     OW 2314   1.501   3.816   2.923 -0.2359  0.2218 -0.1146
  772SOL    HW1 2315   1.442   3.748   2.891 -0.1668 -0.2961  0.8082
  772SOL    HW2 2316   1.476   3.894   2.874 -0.9159 -0.2579 -0.5577
  773SOL     OW 2317   4.259   2.828   3.433  0.2632 -0.9276  0.6417
  773SOL    HW1 2318   4.316   2.817   3.509  1.6073 -1.7609 -0.4427
  773SOL    HW2 2319   4.318   2.827   3.358 -1.0158 -0.0168 -0.4403
  774SOL     OW 2320   1.188   4.173   3.490 -0.3022  0.5014  0.3072
  774SOL    HW1 2321   1.227   4.203   3.407 -1.2951 -0.0817 -0.3890
  774SOL    HW2 2322   1.190   4.078   3.484 -0.4953  0.4576  0.9057
  775SOL     OW 2323   0.387   3.344   0.772  0.2817 -0.4079 -0.4714
  775SOL    HW1 2324   0.330   3.309   0.704 -0.2853 -1.7194  0.6328
  775SOL    HW2 2325   0.328   3.370   0.842  0.7832  1.7046 -0.7451
  776SOL     OW 2326   2.174   1.351   1.844 -0.4015 -0.1801  0.0402
  776SOL    HW1 2327   2.201   1.274   1.795 -1.0893  0.2740 -1.0877
  776SOL    HW2 2328   2.078   1.347   1.843 -0.4379  0.5381  0.2211
  777SOL     OW 2329   0.125   2.737   4.093  0.2133  0.5053 -0.3619
  777SOL    HW1 2330   0.207   2.688   4.104 -0.6354 -1.1112 -0.9348
  777SOL    HW2 2331   0.131   2.808   4.157  0.5170 -1.7041  2.2528
  778SOL     OW 2332   2.511   3.264   2.950  0.0075  0.2610 -0.3686
  778SOL    HW1 2333   2.573   3.295   2.883 -0.8153  1.9645 -0.3929
  778SOL    HW2 2334   2.428   3.304   2.926 -0.3281  0.8324  1.6098
  779SOL     OW 2335   2.260   2.401   1.031  0.5249 -0.0818 -0.3790
  779SOL    HW1 2336   2.330   2.380   1.093  0.2700 -0.9124 -0.3533
  779SOL    HW2 2337   2.245   2.320   0.983 -0.3422  0.1121 -0.4606
  780SOL     OW 2338   2.717   4.390   3.879 -0.9696 -0.3496  0.1986
  780SOL    HW1 2339   2.673   4.393   3.794 -0.1367  0.9738 -0.2305
  780SOL    HW2 2340   2.782   4.320   3.869 -1.3754 -0.7095  0.0197
  781SOL     OW 2341   1.908   2.008   4.256  0.1916 -0.0855 -0.3300
  781SOL    HW1 2342   1.873   2.044   4.338  1.9779  1.7484 -0.3055
  781SOL    HW2 2343   1.885   1.915   4.260 -2.6962  0.5366  0.6421
  782SOL     OW 2344   1.104   1.007   3.909  0.4077 -0.1456 -0.0534
  782SOL    HW1 2345   1.092   1.046   3.995  0.8913 -1.0796  0.4586
  782SOL    HW2 2346   1.073   0.917   3.919  1.8747 -0.7251 -0.4232
  783SOL     OW 2347   0.415   1.528   2.352  0.0549  0.0643 -0.1545
  783SOL    HW1 2348   0.352   1.475   2.303  0.1600  0.7717 -1.0862
  783SOL    HW2 2349   0.378   1.616   2.353  1.0657  0.5167 -0.8169
  784SOL     OW 2350   4.080   3.708   3.073 -0.5621 -0.1597 -0.1212
  784SOL    HW1 2351   4.058   3.798   3.095  0.3691  0.2689 -0.8209
  784SOL    HW2 2352   4.100   3.666   3.156  0.7426  0.8016  0.0897
  785SOL     OW 2353   2.390   2.263   2.170 -0.1040  0.2017 -0.6227
  785SOL    HW1 2354   2.358   2.337   2.117 -0.2624  0.0552 -0.7354
  785SOL    HW2 2355   2.310   2.224   2.206 -0.3924 -1.8824 -3.1438
  786SOL     OW 2356   4.250   3.182   0.361 -0.2653 -0.2252 -0.2701
  786SOL    HW1 2357   4.288   3.266   0.386  0.3471 -0.5495 -0.0870
  786SOL    HW2 2358   4.232   3.138   0.444 -0.6439 -0.2438 -0.3642
  787SOL     OW 2359   1.476   1.242   2.231 -0.0782 -0.9799 -0.0301
  787SOL    HW1 2360   1.439   1.163   2.271  1.1158 -0.6394  1.8318
  787SOL    HW2 2361   1.455   1.312   2.291  0.9134 -0.2733 -0.4803
  788SOL     OW 2362   2.748   2.765   0.211  0.0114 -0.0567  0.2509
  788SOL    HW1 2363   2.842   2.777   0.201 -0.4426  2.6975 -1.7433
  788SOL    HW2 2364   2.713   2.853   0.219 -2.7061 -0.7258 -2.4806
  789SOL     OW 2365   3.546   2.261   2.678 -0.4639 -0.1572 -0.5620
  789SOL    HW1 2366   3.521   2.326   2.613 -2.7204 -0.5957 -0.2165
  789SOL    HW2 2367   3.505   2.291   2.759  0.0053 -1.0556  0.0207
  790SOL     OW 2368   0.492   4.247   0.319 -0.3465 -0.5960  0.3163
  790SOL    HW1 2369   0.562   4.307   0.344  0.7624 -1.6164 -0.2424
  790SOL    HW2 2370   0.537   4.174   0.276 -1.7992 -1.0432 -0.5107
  791SOL     OW 2371   4.195   2.160   2.485 -0.4186 -0.3215 -0.7019
  791SOL    HW1 2372   4.164   2.244   2.518 -0.3914 -0.8951  0.8542
  791SOL    HW2 2373   4.119   2.120   2.442 -0.3844  0.5477 -1.6051
  792SOL     OW 2374   2.524   3.186   0.877  0.6955  0.2219  0.4260
  792SOL    HW1 2375   2.543   3.138   0.796  0.6175 -0.3094  0.7165
  792SOL    HW2 2376   2.499   3.273   0.847 -0.4521 -0.2981 -0.1918
  793SOL     OW 2377   0.795   2.201   0.502  0.8514  0.4550  0.4127
  793SOL    HW1 2378   0.701   2.184   0.493  0.9278  0.7118 -1.2782
  793SOL    HW2 2379   0.802   2.296   0.508  0.9991  0.4394  0.4871
  794SOL     OW 2380   3.403   1.627   1.731 -0.0559  0.1618  0.6133
  794SOL    HW1 2381   3.431   1.581   1.652  0.9615 -1.2931  1.7375
  794SOL    HW2 2382   3.328   1.679   1.704 -0.5270 -1.2717 -1.0253
  795SOL     OW 2383   0.824   2.365   4.227 -0.4885  0.6614  0.2155
  795SOL    HW1 2384   0.840   2.330   4.139  0.3363  1.1906  0.1460
  795SOL    HW2 2385   0.830   2.288   4.285 -3.3062 -0.1182 -0.3834
  796SOL     OW 2386   1.870   1.588   3.321 -0.2800 -0.6874 -0.0239
  796SOL    HW1 2387   1.898   1.674   3.289  1.0529 -1.6075 -1.4362
  796SOL    HW2 2388   1.875   1.596   3.417 -0.0867  0.7742 -0.1347
  797SOL     OW 2389   0.203   3.304   4.183 -0.0690 -0.3296  0.0521
  797SOL    HW1 2390   0.173   3.283   4.094 -0.0548 -1.4942  0.2965
  797SOL    HW2 2391   0.128   3.283   4.239  0.4244 -1.0737  0.4521
  798SOL     OW 2392   2.031   3.698   3.511  0.1186 -0.0100  0.4045
  798SOL    HW1 2393   1.981   3.631   3.465  1.3998 -0.8243  0.1690
  798SOL    HW2 2394   2.040   3.769   3.447  2.4037 -1.3714 -0.8955
  799SOL     OW 2395   0.215   1.222   1.593  0.2872  0.0173 -0.3160
  799SOL    HW1 2396   0.165   1.149   1.629 -2.3901  2.4404  1.2773
  799SOL    HW2 2397   0.248   1.269   1.670  1.7957  0.6237 -1.2898
  800SOL     OW 2398   0.944   1.213   3.541 -0.0673  0.5608 -0.3119
  800SOL    HW1 2399   0.856   1.211   3.578  0.3922  0.8122  0.8372
  800SOL    HW2 2400   1.002   1.194   3.614  0.8581  0.6562 -0.9948
  801SOL     OW 2401   4.366   3.750   0.225  0.6205  0.2852  0.4879
  801SOL    HW1 2402   4.288   3.726   0.275  1.2814  1.0223  1.9123
  801SOL    HW2 2403   4.344   3.835   0.187 -0.3822 -0.8435 -1.6625
  802SOL     OW 2404   1.168   3.585   2.341 -0.2563 -0.4968 -0.5631
  802SOL    HW1 2405   1.178   3.491   2.359 -1.3880 -0.3536  1.0998
  802SOL    HW2 2406   1.242   3.607   2.285  1.0549 -2.0350  0.4637
  803SOL     OW 2407   3.562   0.313   2.511  0.8661  0.5979  0.3190
  803SOL    HW1 2408   3.472   0.280   2.503  1.2293 -0.0551 -1.8496
  803SOL    HW2 2409   3.556   0.385   2.573 -0.8727 -0.4163  1.4172
  804SOL     OW 2410   3.401   3.194   4.307  0.3911 -0.1723  0.3822
  804SOL    HW1 2411   3.454   3.243   4.245 -1.4331 -1.4035 -2.3238
  804SOL    HW2 2412   3.397   3.250   4.385  1.8852  1.9421 -0.9663
  805SOL     OW 2413   1.601   2.991   2.878 -0.3718 -0.4653 -0.3557
  805SOL    HW1 2414   1.598   2.927   2.807 -1.5674 -2.4564  1.3871
  805SOL    HW2 2415   1.673   2.961   2.934  0.3764  0.9250 -0.5094
  806SOL     OW 2416   3.820   3.654   3.042  0.0390  0.0278  0.4766
  806SOL    HW1 2417   3.909   3.682   3.020 -0.7248  1.7555 -0.5680
  806SOL    HW2 2418   3.805   3.688   3.130 -0.8195  2.9815 -0.7112
  807SOL     OW 2419   4.423   3.301   1.809  0.1121  0.1078 -0.6555
  807SOL    HW1 2420   4.483   3.295   1.735  1.0352 -1.0164  0.1402
  807SOL    HW2 2421   4.346   3.347   1.775  0.8145  0.2474 -2.0993
  808SOL     OW 2422   1.891   0.046   2.221 -0.1242  0.3609  0.5811
  808SOL    HW1 2423   1.865  -0.034   2.174  1.1062  0.3830 -0.1856
  808SOL    HW2 2424   1.876   0.117   2.158 -0.3307  0.6195  0.9229
  809SOL     OW 2425   2.023   3.868   2.395  0.2899 -0.4870  0.8770
  809SOL    HW1 2426   2.056   3.870   2.306  0.6169  0.2356  1.0162
  809SOL    HW2 2427   2.095   3.900   2.449  0.5368 -2.0569  1.5506
  810SOL     OW 2428   1.406   2.235   2.703  0.1249  0.4046 -0.2972
  810SOL    HW1 2429   1.495   2.264   2.681  0.6829  0.3952  1.7877
  810SOL    HW2 2430   1.364   2.312   2.741  0.1866 -0.3244  1.3067
  811SOL     OW 2431   2.760   0.046   3.094  0.2096 -0.7742 -0.4015
  811SOL    HW1 2432   2.769   0.132   3.135 -1.4068 -0.9111  0.3317
  811SOL    HW2 2433   2.849   0.018   3.077  0.8379  0.3472  0.8516
  812SOL     OW 2434   0.391   0.444   0.634  0.4073  0.4554 -0.5238
  812SOL    HW1 2435   0.361   0.486   0.715 -0.4864  1.0936 -1.1588
  812SOL    HW2 2436   0.453   0.377   0.662 -1.2461 -0.5785  0.8228
  813SOL     OW 2437   2.882   2.955   3.030  0.6512  0.2840  0.1411
  813SOL    HW1 2438   2.884   2.964   3.125  1.9938 -1.4859  0.3292
  813SOL    HW2 2439   2.965   2.992   3.000  0.7576 -0.2447 -0.2297
  814SOL     OW 2440   1.012   1.321   1.437  0.1446  0.5898  0.2075
  814SOL    HW1 2441   0.988   1.395   1.492 -0.2353  1.4336 -1.0501
  814SOL    HW2 2442   1.037   1.252   1.499  0.4605  1.7375  1.4019
  815SOL     OW 2443   3.364   0.811   4.251 -0.4146  0.8609 -0.4677
  815SOL    HW1 2444   3.423   0.838   4.321 -0.1617  2.3861 -1.2193
  815SOL    HW2 2445   3.411   0.742   4.204  0.4757  1.5630 -0.6260
  816SOL     OW 2446   1.929   3.587   2.317  0.2675  0.2808 -0.2363
  816SOL    HW1 2447   2.024   3.580   2.314  0.1647 -1.5696 -0.2912
  816SOL    HW2 2448   1.911   3.679   2.301  2.0330  0.6104 -0.4896
  817SOL     OW 2449   2.600   0.809   0.754 -0.0157  0.2281 -0.0905
  817SOL    HW1 2450   2.613   0.715   0.769 -0.4922  0.0252 -0.8825
  817SOL    HW2 2451   2.651   0.828   0.675  0.4576  0.7446  0.3271
  818SOL     OW 2452   3.185   0.537   2.663 -0.2624 -0.4352 -0.5583
  818SOL    HW1 2453   3.112   0.600   2.663 -1.0600 -1.3337 -0.4488
  818SOL    HW2 2454   3.156   0.467   2.604  1.0377 -0.2378 -1.4740
  819SOL     OW 2455   0.183   0.813   0.200  0.0227 -0.2207  0.3014
  819SOL    HW1 2456   0.203   0.875   0.271 -0.2621  0.7378 -0.4428
  819SOL    HW2 2457   0.093   0.832   0.176 -0.2469 -1.3058  0.4225
  820SOL     OW 2458   2.901   0.028   0.834  0.1049  0.4083  0.0044
  820SOL    HW1 2459   2.967  -0.040   0.820 -0.4730 -0.3752  0.9174
  820SOL    HW2 2460   2.905   0.082   0.755  0.3426 -0.8808 -0.9004
  821SOL     OW 2461   0.454   2.894   3.349 -0.1471 -0.2128  0.0504
  821SOL    HW1 2462   0.541   2.930   3.367 -0.2528 -0.6015  1.4021
  821SOL    HW2 2463   0.468   2.799   3.348 -0.6005 -0.2844  0.4903
  822SOL     OW 2464   1.191   1.862   0.558  0.1377 -0.2333  0.3871
  822SOL    HW1 2465   1.150   1.947   0.546 -1.7079 -1.1599 -0.1135
  822SOL    HW2 2466   1.275   1.870   0.512 -0.5031  0.9454 -0.6437
  823SOL     OW 2467   0.539   2.142   4.183 -0.0865 -0.6688  0.2723
  823SOL    HW1 2468   0.626   2.145   4.142 -1.3574 -1.6345 -2.8224
  823SOL    HW2 2469   0.497   2.223   4.154 -1.1759 -1.5807 -0.7726
  824SOL     OW 2470   0.459   1.412   0.348 -0.0475  0.5573  0.0901
  824SOL    HW1 2471   0.381   1.457   0.315  0.6337  0.0631 -2.3746
  824SOL    HW2 2472   0.486   1.463   0.424 -1.4632  2.0639 -0.3741
  825SOL     OW 2473   0.283   1.788   2.346 -0.2739  0.0554 -0.2191
  825SOL    HW1 2474   0.231   1.768   2.424 -0.3337 -2.5833 -0.8425
  825SOL    HW2 2475   0.219   1.793   2.275  0.0807 -1.2728 -0.6668
  826SOL     OW 2476   0.511   1.680   0.753 -0.0553  0.2118 -0.3296
  826SOL    HW1 2477   0.474   1.698   0.840  1.6224  1.5159  0.1665
  826SOL    HW2 2478   0.510   1.765   0.709 -1.7238 -0.5990 -1.9864
  827SOL     OW 2479   1.942   3.868   3.759  0.4229 -0.9354  0.3096
  827SOL    HW1 2480   1.885   3.893   3.687  0.1957 -1.1406  0.4176
  827SOL    HW2 2481   2.030   3.868   3.721  0.1602 -2.5886 -0.4030
  828SOL     OW 2482   0.814   2.803   3.101 -1.0698 -0.0871  0.5080
  828SOL    HW1 2483   0.865   2.780   3.179  0.0038 -1.8118 -0.6100
  828SOL    HW2 2484   0.880   2.834   3.039 -1.3395 -2.0298 -0.8512
  829SOL     OW 2485   1.892   3.067   4.324 -0.1706 -0.2737 -0.0485
  829SOL    HW1 2486   1.863   3.030   4.407  0.3881 -0.4954  0.0498
  829SOL    HW2 2487   1.982   3.036   4.314 -0.1377 -0.0085 -0.5941
  830SOL     OW 2488   4.230   4.493   2.455 -0.0816 -0.1210 -0.0340
  830SOL    HW1 2489   4.227   4.415   2.400  0.6791 -0.4056  0.3218
  830SOL    HW2 2490   4.288   4.470   2.527 -0.2332  0.6105  0.3361
  831SOL     OW 2491   1.130   3.727   2.694  0.0797  0.2609 -0.2712
  831SOL    HW1 2492   1.119   3.767   2.781 -3.3507  0.1675 -0.5538
  831SOL    HW2 2493   1.105   3.636   2.706 -1.3627  0.4623 -1.5213
  832SOL     OW 2494   2.373   2.526   2.096 -0.0837  0.0477  0.0606
  832SOL    HW1 2495   2.463   2.558   2.105  0.0199 -0.4316  0.8501
  832SOL    HW2 2496   2.329   2.593   2.045  0.6488  0.4412 -0.0715
  833SOL     OW 2497   0.999   3.936   1.464 -0.6351 -0.6644 -0.2150
  833SOL    HW1 2498   1.085   3.927   1.506  0.3398 -1.4982 -2.2581
  833SOL    HW2 2499   0.948   3.988   1.526  1.6191  0.6747  0.6512
  834SOL     OW 2500   2.406   0.174   2.349 -0.1107 -0.3893  0.6500
  834SOL    HW1 2501   2.317   0.140   2.357 -0.2101 -0.3449 -0.2084
  834SOL    HW2 2502   2.432   0.151   2.260  0.0437  1.2468  0.2586
  835SOL     OW 2503   2.509   1.655   2.394  0.2914  0.0244  0.7282
  835SOL    HW1 2504   2.511   1.751   2.390  0.4964  0.0299  0.9107
  835SOL    HW2 2505   2.416   1.634   2.394  0.2483  0.1729 -0.2335
  836SOL     OW 2506   1.336   1.879   3.828 -0.1289 -0.0941  0.6016
  836SOL    HW1 2507   1.310   1.878   3.921  2.0761  1.8845  1.3411
  836SOL    HW2 2508   1.376   1.965   3.815 -1.3229  0.1157 -2.5259
  837SOL     OW 2509   2.861   2.591   4.453  0.5756  0.0445  0.1905
  837SOL    HW1 2510   2.907   2.657   4.504  0.7149 -1.5209  2.2048
  837SOL    HW2 2511   2.928   2.556   4.394  0.2850  2.2297 -1.5600
  838SOL     OW 2512   1.076   0.277   3.917 -0.6678  0.0248  0.3585
  838SOL    HW1 2513   0.985   0.246   3.918 -0.9313  0.7572  0.0506
  838SOL    HW2 2514   1.121   0.217   3.859 -1.3477  0.6569 -0.8694
  839SOL     OW 2515   4.317   1.742   1.556 -0.3464 -0.1250  0.1772
  839SOL    HW1 2516   4.343   1.813   1.497  3.1181 -0.4880  1.0658
  839SOL    HW2 2517   4.324   1.663   1.502  2.7969 -0.4547  0.8565
  840SOL     OW 2518   2.104   2.167   3.788 -0.1803  0.4870 -0.2318
  840SOL    HW1 2519   2.027   2.140   3.738 -1.2609 -2.2851  2.5934
  840SOL    HW2 2520   2.069   2.196   3.873  1.8363 -0.9914  1.2069
  841SOL     OW 2521   0.242   4.394   1.079  0.1884  0.7480  0.0034
  841SOL    HW1 2522   0.333   4.391   1.108 -0.9007 -0.0772  3.9372
  841SOL    HW2 2523   0.239   4.337   1.002  3.3091  2.6018 -1.6798
  842SOL     OW 2524   3.571   0.699   0.605 -0.1614  0.2339  0.2035
  842SOL    HW1 2525   3.662   0.731   0.610 -0.2221  0.5729 -0.7170
  842SOL    HW2 2526   3.545   0.688   0.697  1.5380 -2.0053  0.5124
  843SOL     OW 2527   2.655   3.530   0.078 -0.0822 -0.4435  0.0347
  843SOL    HW1 2528   2.609   3.504   0.157  0.9432  0.9514  1.1269
  843SOL    HW2 2529   2.588   3.569   0.022 -1.2111 -3.1347 -0.6905
  844SOL     OW 2530   1.981   1.681   2.834  0.2727 -0.4571 -0.0975
  844SOL    HW1 2531   2.054   1.637   2.878  1.2808 -0.2757 -1.5291
  844SOL    HW2 2532   1.994   1.774   2.852  0.3421 -0.4328 -0.2708
  845SOL     OW 2533   1.335   0.577   3.863  0.0033 -0.4392  0.0191
  845SOL    HW1 2534   1.368   0.663   3.839  0.0380 -0.2253  0.7894
  845SOL    HW2 2535   1.335   0.527   3.782  0.5531  0.1028 -0.3196
  846SOL     OW 2536   1.085   2.187   2.914 -0.3423  0.5054  0.2207
  846SOL    HW1 2537   1.146   2.260   2.929 -1.8013  1.5327  1.4157
  846SOL    HW2 2538   1.071   2.149   3.001 -2.3960  1.1311  0.2103
  847SOL     OW 2539   2.243   0.743   2.042  0.4198 -0.3961 -0.4317
  847SOL    HW1 2540   2.242   0.788   1.957  0.5220 -0.7950 -0.6449
  847SOL    HW2 2541   2.236   0.814   2.106  1.4225 -0.0090 -0.7365
  848SOL     OW 2542   0.618   4.110   2.876  0.3721 -0.1921  0.3769
  848SOL    HW1 2543   0.607   4.052   2.951 -0.2757  0.2037  0.5928
  848SOL    HW2 2544   0.607   4.198   2.912  0.1679  0.0035 -0.1629
  849SOL     OW 2545   2.769   4.188   0.069 -0.3745  0.0066 -0.8548
  849SOL    HW1 2546   2.803   4.102   0.044  1.0557  0.4769 -0.6111
  849SOL    HW2 2547   2.705   4.170   0.137  0.6656 -0.8079 -0.0582
  850SOL     OW 2548   1.021   3.146   2.115 -0.3161 -0.7354  0.6328
  850SOL    HW1 2549   1.108   3.183   2.130 -0.3168 -0.4670  0.0186
  850SOL    HW2 2550   1.022   3.120   2.023 -0.6671 -1.3283  0.7913
  851SOL     OW 2551   1.628   3.214   2.529  0.6382  0.2404 -0.2192
  851SOL    HW1 2552   1.534   3.196   2.530  0.5381  0.7302  0.5321
  851SOL    HW2 2553   1.640   3.278   2.600  1.5345  0.1816 -0.3130
  852SOL     OW 2554   1.104   3.567   1.446  0.3485  0.0255 -0.1653
  852SOL    HW1 2555   1.156   3.637   1.487 -0.9633  1.3821 -0.6889
  852SOL    HW2 2556   1.015   3.582   1.480  0.1897 -1.9476  0.3648
  853SOL     OW 2557   0.969   3.045   3.720 -0.1936  0.1889  0.3081
  853SOL    HW1 2558   0.874   3.045   3.706 -0.0015  0.3813 -1.2088
  853SOL    HW2 2559   1.001   3.118   3.667  0.6725  1.1009  2.0037
  854SOL     OW 2560   3.033   0.703   3.452 -0.2636  0.8260 -0.0981
  854SOL    HW1 2561   2.944   0.671   3.435  0.4843 -1.7556  0.4100
  854SOL    HW2 2562   3.080   0.687   3.370  0.4430 -0.6805  0.5692
  855SOL     OW 2563   1.382   3.603   2.163  0.2281  0.4024  0.2655
  855SOL    HW1 2564   1.471   3.630   2.184  0.4246  0.3687 -0.4969
  855SOL    HW2 2565   1.392   3.523   2.111 -0.1463  1.3913 -1.4026
  856SOL     OW 2566   3.617   2.855   1.963  0.4624  0.2733  0.1238
  856SOL    HW1 2567   3.710   2.836   1.951 -0.0683 -2.6887  0.0600
  856SOL    HW2 2568   3.597   2.823   2.051 -0.7618 -0.2986 -0.3440
  857SOL     OW 2569   2.270   0.603   0.516 -0.3470 -0.2843 -0.0476
  857SOL    HW1 2570   2.289   0.622   0.608  3.6885 -2.7295 -0.1472
  857SOL    HW2 2571   2.242   0.511   0.516  1.1493 -0.7806 -1.3234
  858SOL     OW 2572   0.972   4.010   4.213 -0.4615 -0.8555 -0.0115
  858SOL    HW1 2573   0.939   4.010   4.123 -2.0327 -1.7975  0.5208
  858SOL    HW2 2574   0.923   3.939   4.256  1.4729 -1.5363  1.1648
  859SOL     OW 2575   2.756   1.758   2.778  0.4313 -0.5057  0.1251
  859SOL    HW1 2576   2.849   1.759   2.757  0.6451  2.2208  0.7185
  859SOL    HW2 2577   2.715   1.805   2.706 -0.2424 -0.2634  0.6556
  860SOL     OW 2578   1.214   2.503   1.948  0.1045 -0.6150  0.2220
  860SOL    HW1 2579   1.153   2.480   1.877  0.8491  0.6396 -0.8809
  860SOL    HW2 2580   1.226   2.598   1.938  2.1705 -0.8239  0.4492
  861SOL     OW 2581   1.398   2.140   2.401  0.0351  0.0485  0.5971
  861SOL    HW1 2582   1.438   2.192   2.332  3.0500 -2.5229  0.1456
  861SOL    HW2 2583   1.436   2.174   2.482  1.6563 -1.0329  0.3404
  862SOL     OW 2584   2.375   4.234   2.594  0.3117 -0.9028  0.8456
  862SOL    HW1 2585   2.313   4.175   2.636 -0.1057  0.1333  1.7317
  862SOL    HW2 2586   2.398   4.191   2.511 -2.4932 -0.7797 -0.0954
  863SOL     OW 2587   3.137   4.466   3.452  1.0218 -0.3881 -0.0468
  863SOL    HW1 2588   3.068   4.531   3.462 -1.5748 -2.8343 -0.9115
  863SOL    HW2 2589   3.169   4.451   3.541 -0.3226  0.0019  0.5165
  864SOL     OW 2590   0.206   0.313   2.422 -0.7061  0.4859 -0.5216
  864SOL    HW1 2591   0.280   0.328   2.481 -0.5849 -1.6405 -0.0681
  864SOL    HW2 2592   0.176   0.401   2.399  1.2579  1.3817  0.1560
  865SOL     OW 2593   2.322   1.647   3.488  0.0147  0.0780  0.2896
  865SOL    HW1 2594   2.408   1.687   3.497  0.8917 -1.7792  0.6782
  865SOL    HW2 2595   2.262   1.721   3.479  1.6806  1.4127 -0.4502
  866SOL     OW 2596   2.181   0.538   2.221 -0.1624  0.4531  0.0484
  866SOL    HW1 2597   2.190   0.604   2.152 -0.0118  0.6390  0.2445
  866SOL    HW2 2598   2.096   0.497   2.205  0.4408 -0.4413 -1.0663
  867SOL     OW 2599   0.676   2.363   2.144  0.0842  0.3410  0.3409
  867SOL    HW1 2600   0.730   2.321   2.210 -1.3913 -0.9533  0.7901
  867SOL    HW2 2601   0.668   2.454   2.173 -0.4005 -0.1664  1.8594
  868SOL     OW 2602   4.395   2.299   3.558 -0.2601  0.0171 -0.1866
  868SOL    HW1 2603   4.357   2.228   3.609 -0.4654 -0.0490 -0.4317
  868SOL    HW2 2604   4.346   2.300   3.476  2.2609 -2.1718 -1.9008
  869SOL     OW 2605   4.445   3.368   0.420  0.0609 -0.4833  0.1244
  869SOL    HW1 2606   4.524   3.408   0.457 -1.3463  1.2126  1.5259
  869SOL    HW2 2607   4.443   3.398   0.329  2.0324 -2.2375 -0.5644
  870SOL     OW 2608   1.081   1.923   0.946  0.3808  0.6193 -0.2971
  870SOL    HW1 2609   1.019   1.854   0.926 -0.3606  0.8397  1.0516
  870SOL    HW2 2610   1.165   1.891   0.914  0.3291 -1.5444  1.4447
  871SOL     OW 2611   3.038   1.890   3.819 -0.1568 -0.4683 -0.1939
  871SOL    HW1 2612   3.085   1.922   3.741 -0.9408 -0.1892 -0.5580
  871SOL    HW2 2613   3.093   1.917   3.892 -0.4042  1.0606 -0.5328
  872SOL     OW 2614   0.610   3.248   1.397  0.1748 -0.0711  0.0855
  872SOL    HW1 2615   0.616   3.172   1.338 -0.0357  0.4524 -0.6259
  872SOL    HW2 2616   0.569   3.316   1.344 -1.2115  0.0331  1.2357
  873SOL     OW 2617   0.915   0.495   3.434  0.4274 -0.6831 -0.1475
  873SOL    HW1 2618   0.866   0.450   3.503 -1.4782  0.5068 -0.6410
  873SOL    HW2 2619   0.848   0.523   3.371  1.7325  1.0256 -0.8740
  874SOL     OW 2620   3.674   2.234   4.250 -0.0806 -0.3856  0.0724
  874SOL    HW1 2621   3.645   2.324   4.233  1.9362  0.1340 -0.8548
  874SOL    HW2 2622   3.639   2.214   4.337  0.1695  1.6281  0.6921
  875SOL     OW 2623   3.061   0.142   0.088 -0.3688  0.8485  0.0831
  875SOL    HW1 2624   2.991   0.098   0.039  0.6145 -1.1208  0.3412
  875SOL    HW2 2625   3.061   0.232   0.054 -1.7247  0.3754 -1.3192
  876SOL     OW 2626   4.358   1.667   3.225 -0.4770 -0.1893  0.1136
  876SOL    HW1 2627   4.290   1.726   3.191 -0.7562  0.2577  1.4019
  876SOL    HW2 2628   4.350   1.588   3.170 -0.6518  0.6306 -1.0883
  877SOL     OW 2629   0.126   4.158   0.639  0.2365  0.4316 -0.2307
  877SOL    HW1 2630   0.112   4.106   0.560 -0.1543  0.8929 -0.4758
  877SOL    HW2 2631   0.185   4.228   0.612  1.4256 -0.3465  0.3035
  878SOL     OW 2632   4.120   4.009   1.955 -0.3298 -0.1187  0.0250
  878SOL    HW1 2633   4.126   3.976   2.045  1.1908  1.0889  0.4091
  878SOL    HW2 2634   4.191   4.073   1.948 -1.1062  0.6197 -1.7095
  879SOL     OW 2635   0.140   0.836   2.564  0.2172 -1.0863 -0.1726
  879SOL    HW1 2636   0.066   0.876   2.518  1.5048  1.7408  0.0391
  879SOL    HW2 2637   0.113   0.835   2.656 -0.4542 -2.3101 -0.3555
  880SOL     OW 2638   1.031   2.624   1.126 -0.7344  0.4051 -0.4064
  880SOL    HW1 2639   0.952   2.676   1.138  0.1406  1.6922 -0.0038
  880SOL    HW2 2640   1.099   2.671   1.175  0.5285 -0.0666 -1.6217
  881SOL     OW 2641   0.217   4.078   1.739 -0.3950 -0.6077  0.1601
  881SOL    HW1 2642   0.141   4.058   1.795 -0.5365 -1.3761 -0.3045
  881SOL    HW2 2643   0.210   4.018   1.666  1.0889 -1.2022  0.4741
  882SOL     OW 2644   2.877   4.491   0.314 -0.0048  0.2268  0.6561
  882SOL    HW1 2645   2.807   4.448   0.265  0.0303 -1.7963  2.2334
  882SOL    HW2 2646   2.956   4.476   0.262 -0.3749  0.5094  0.0058
  883SOL     OW 2647   1.938   0.056   0.049 -0.1420 -0.1110  0.4035
  883SOL    HW1 2648   1.906  -0.005   0.115  0.7112  0.6236  1.5479
  883SOL    HW2 2649   2.008   0.104   0.093  0.1831  0.6859 -0.9214
  884SOL     OW 2650   0.138   2.542   0.331  0.0187  0.1960 -0.0064
  884SOL    HW1 2651   0.118   2.636   0.334 -1.1336  0.0044 -1.1172
  884SOL    HW2 2652   0.058   2.502   0.297  0.2621 -1.2736  1.0956
  885SOL     OW 2653   1.992   0.106   3.819 -0.8175 -0.1915  0.6574
  885SOL    HW1 2654   2.057   0.081   3.753  0.5040 -1.5557  2.3761
  885SOL    HW2 2655   2.013   0.198   3.839 -0.4899 -0.1223  0.0218
  886SOL     OW 2656   0.815   1.153   2.052  0.3411  0.4448 -0.0789
  886SOL    HW1 2657   0.830   1.247   2.039  1.9219  0.7145  2.8127
  886SOL    HW2 2658   0.746   1.149   2.119  1.4052 -0.3386  1.0303
  887SOL     OW 2659   3.941   0.858   3.437  0.1188 -0.5351 -0.1863
  887SOL    HW1 2660   4.015   0.867   3.377 -0.1403  0.9007 -0.3235
  887SOL    HW2 2661   3.863   0.869   3.382 -0.2131 -1.8419 -0.0117
  888SOL     OW 2662   2.163   4.237   3.692 -0.1395 -0.7895  0.0663
  888SOL    HW1 2663   2.244   4.187   3.682  0.9154  0.8211  0.2616
  888SOL    HW2 2664   2.126   4.205   3.774 -0.0233 -1.9325 -0.2980
  889SOL     OW 2665   2.616   0.019   0.619 -0.1617 -0.1492  0.1584
  889SOL    HW1 2666   2.684   0.086   0.626 -1.6255  1.3570  0.6731
  889SOL    HW2 2667   2.663  -0.063   0.603  1.6374  1.1977 -2.0034
  890SOL     OW 2668   2.805   3.585   3.516 -0.3837  1.0088 -0.0555
  890SOL    HW1 2669   2.752   3.513   3.549 -1.6703  1.6342 -0.6823
  890SOL    HW2 2670   2.890   3.546   3.497 -0.8536 -0.1917  0.2479
  891SOL     OW 2671   3.834   3.137   4.056  0.3135  0.3937 -0.3671
  891SOL    HW1 2672   3.843   3.110   4.147  0.0767  1.3881 -0.0392
  891SOL    HW2 2673   3.912   3.189   4.038 -0.2289  1.2227 -0.3565
  892SOL     OW 2674   3.474   0.980   3.504  0.1182 -0.1041  0.0749
  892SOL    HW1 2675   3.544   0.993   3.568  0.3949 -2.2340  0.2537
  892SOL    HW2 2676   3.398   1.024   3.543  1.0439  1.3149  0.3674
  893SOL     OW 2677   0.086   1.395   3.802  0.3367  0.3872 -0.0921
  893SOL    HW1 2678   0.043   1.334   3.861 -1.0556 -0.2287 -1.6715
  893SOL    HW2 2679   0.042   1.479   3.816  0.3348  0.3567  0.0806
  894SOL     OW 2680   3.683   2.089   2.212  0.5309 -0.3722  0.0158
  894SOL    HW1 2681   3.602   2.083   2.263 -2.6224  2.3240 -4.0355
  894SOL    HW2 2682   3.735   2.155   2.257 -0.3130 -0.7796  1.6838
  895SOL     OW 2683   2.794   1.402   2.124  0.4690 -0.1719 -0.3628
  895SOL    HW1 2684   2.797   1.313   2.158  0.3739  0.0924  0.3719
  895SOL    HW2 2685   2.821   1.395   2.033 -0.0123 -1.0143 -0.4426
  896SOL     OW 2686   1.712   0.346   0.914 -0.3030 -0.3607 -0.8592
  896SOL    HW1 2687   1.689   0.340   1.007 -0.6858  1.4437 -0.7927
  896SOL    HW2 2688   1.634   0.384   0.873  0.0716 -0.6154 -1.8215
  897SOL     OW 2689   0.248   3.112   2.647  0.5862  0.1763  0.2488
  897SOL    HW1 2690   0.293   3.028   2.660 -1.4715 -1.0609 -0.1922
  897SOL    HW2 2691   0.211   3.133   2.733  1.5286  0.9356  0.4874
  898SOL     OW 2692   3.516   3.018   1.129  0.1970  0.3811  0.1161
  898SOL    HW1 2693   3.540   3.070   1.052 -0.6408 -0.9015 -1.0433
  898SOL    HW2 2694   3.448   3.070   1.172 -0.7514  0.2065 -1.1184
  899SOL     OW 2695   0.316   4.037   2.222  0.3504 -0.3412 -0.3096
  899SOL    HW1 2696   0.346   3.948   2.202  1.6258  0.2350 -0.9997
  899SOL    HW2 2697   0.359   4.058   2.305 -2.0081 -1.3043  1.2970
  900SOL     OW 2698   0.133   1.755   3.650 -0.2188  0.2435  0.5203
  900SOL    HW1 2699   0.110   1.815   3.721 -0.9068  1.0934 -0.4059
  900SOL    HW2 2700   0.077   1.780   3.577  0.1438 -0.9254 -0.1944
  901SOL     OW 2701   4.034   1.719   0.224 -0.1919  0.1091  0.0383
  901SOL    HW1 2702   4.011   1.812   0.225  0.4239  0.3389 -2.1196
  901SOL    HW2 2703   4.065   1.701   0.312  0.1899  2.0846  0.3547
  902SOL     OW 2704   1.651   2.912   0.542 -0.1232 -0.2095  0.4679
  902SOL    HW1 2705   1.687   3.001   0.543 -0.7976  0.0738  0.2198
  902SOL    HW2 2706   1.621   2.900   0.452 -0.2284 -0.6113  0.5557
  903SOL     OW 2707   0.152   3.106   2.915  0.0593 -0.2894  0.5676
  903SOL    HW1 2708   0.121   3.019   2.939 -1.4069  0.4726  1.5392
  903SOL    HW2 2709   0.230   3.120   2.969  0.3979 -1.0407  0.2870
  904SOL     OW 2710   2.582   2.186   1.946 -0.2306  0.2754 -0.4779
  904SOL    HW1 2711   2.529   2.230   1.879 -0.1720  1.7967  0.4108
  904SOL    HW2 2712   2.537   2.103   1.961 -2.1201  1.2919 -0.1236
  905SOL     OW 2713   4.018   0.172   0.099 -0.1890  0.0953 -0.5013
  905SOL    HW1 2714   4.005   0.225   0.020  0.2285  2.3649  0.8821
  905SOL    HW2 2715   3.933   0.171   0.142  0.0306  0.4709 -0.0478
  906SOL     OW 2716   0.777   0.164   4.301 -0.1158  0.2278 -0.0483
  906SOL    HW1 2717   0.807   0.214   4.376 -0.4405  0.7544 -0.2624
  906SOL    HW2 2718   0.822   0.204   4.226 -2.3412  1.9759 -0.5687
  907SOL     OW 2719   0.970   3.901   0.115  0.5301 -0.4123  0.9992
  907SOL    HW1 2720   0.956   3.953   0.036 -0.0366 -1.8475  0.1228
  907SOL    HW2 2721   1.065   3.898   0.125  0.7088 -1.6879 -0.6794
  908SOL     OW 2722   2.712   4.027   4.110  0.0730 -0.1058 -0.0657
  908SOL    HW1 2723   2.754   3.943   4.096 -1.2638 -1.0880  1.4884
  908SOL    HW2 2724   2.619   4.010   4.095 -0.2405  1.0416  0.4656
  909SOL     OW 2725   2.129   0.095   2.395 -0.5016 -0.8795 -0.2795
  909SOL    HW1 2726   2.053   0.057   2.351 -0.5711 -0.3162 -0.6619
  909SOL    HW2 2727   2.102   0.186   2.413  0.6089 -0.2308 -1.7365
  910SOL     OW 2728   0.498   2.283   2.794 -0.3076 -0.1246 -0.0437
  910SOL    HW1 2729   0.536   2.201   2.760 -0.4277  0.2726 -1.1623
  910SOL    HW2 2730   0.410   2.286   2.757  0.1741  1.1795 -1.1603
  911SOL     OW 2731   2.328   0.561   3.007 -0.0279 -0.4050  0.1175
  911SOL    HW1 2732   2.378   0.622   3.061  0.5280 -1.1403  0.4565
  911SOL    HW2 2733   2.358   0.576   2.918  0.6246 -0.6642  0.2888
  912SOL     OW 2734   3.864   2.472   2.587  0.2908  0.3209  0.6339
  912SOL    HW1 2735   3.862   2.566   2.570 -1.7783  0.5472  1.7429
  912SOL    HW2 2736   3.794   2.458   2.651  0.1843 -2.0570  0.0990
  913SOL     OW 2737   4.092   4.226   3.121  0.0488 -0.5599  0.0394
  913SOL    HW1 2738   4.155   4.193   3.184  1.3069  1.4840 -0.0843
  913SOL    HW2 2739   4.070   4.314   3.151  1.5401  0.9533 -2.8380
  914SOL     OW 2740   2.966   2.087   0.422  0.1030 -0.7062 -0.0064
  914SOL    HW1 2741   2.878   2.086   0.384 -0.0513  0.0690  0.3001
  914SOL    HW2 2742   3.023   2.052   0.353 -0.6359 -2.7563  0.3612
  915SOL     OW 2743   2.873   1.916   2.074  0.5641  0.3008  0.5311
  915SOL    HW1 2744   2.841   1.995   2.032 -3.6861 -1.5019 -0.1343
  915SOL    HW2 2745   2.845   1.923   2.165  0.4996 -0.2852  0.5626
  916SOL     OW 2746   1.459   0.288   1.635 -0.7725 -0.0691  0.6377
  916SOL    HW1 2747   1.494   0.240   1.710 -0.6768 -0.6356  0.2406
  916SOL    HW2 2748   1.497   0.375   1.643 -0.9054 -0.0701  1.3429
  917SOL     OW 2749   0.568   2.068   3.722 -0.9912 -0.0370 -0.4982
  917SOL    HW1 2750   0.519   2.012   3.782  0.1196 -0.5963 -0.0866
  917SOL    HW2 2751   0.658   2.037   3.729 -0.0435  2.7261  0.8155
  918SOL     OW 2752   3.089   0.959   2.714  0.2031 -0.1900  0.8475
  918SOL    HW1 2753   3.084   0.864   2.728 -0.7107 -0.2007  0.4987
  918SOL    HW2 2754   2.998   0.989   2.717  0.1136  0.1809 -2.2747
  919SOL     OW 2755   3.872   2.799   3.496  0.1520  0.0852  0.7010
  919SOL    HW1 2756   3.815   2.745   3.550  0.1970  2.2275  3.1137
  919SOL    HW2 2757   3.961   2.772   3.522  0.1834  0.0472  0.5512
  920SOL     OW 2758   3.948   2.226   0.542  0.3194 -0.3468  0.2939
  920SOL    HW1 2759   3.888   2.249   0.613 -0.8468 -1.2508 -0.3540
  920SOL    HW2 2760   4.002   2.304   0.530 -2.2836  1.4433 -0.6203
  921SOL     OW 2761   3.239   3.241   2.641  0.0715 -0.1930 -0.2386
  921SOL    HW1 2762   3.202   3.291   2.713  1.5766 -0.1097  0.5098
  921SOL    HW2 2763   3.316   3.292   2.613  0.0072 -0.6570 -1.3312
  922SOL     OW 2764   1.903   4.292   2.099 -0.4238  0.1773 -0.1470
  922SOL    HW1 2765   1.883   4.206   2.136  0.4245 -0.2316 -0.5980
  922SOL    HW2 2766   1.917   4.275   2.006  2.3048  0.3304  0.1692
  923SOL     OW 2767   1.318   2.543   2.193  0.1731  0.2066 -1.1880
  923SOL    HW1 2768   1.409   2.518   2.181  0.0540 -1.0451  0.1078
  923SOL    HW2 2769   1.277   2.527   2.108  1.1233  0.6209 -1.7326
  924SOL     OW 2770   4.222   3.097   0.617  0.1149 -0.2827  0.2768
  924SOL    HW1 2771   4.222   3.163   0.686  1.6426  1.1737 -1.0319
  924SOL    HW2 2772   4.276   3.026   0.652 -1.2279 -0.7250  1.5479
  925SOL     OW 2773   1.336   0.534   3.582  0.0404  0.5361 -0.5263
  925SOL    HW1 2774   1.283   0.576   3.515 -0.0568  0.2419 -0.6384
  925SOL    HW2 2775   1.416   0.585   3.586 -0.8985  1.9903  0.8068
  926SOL     OW 2776   0.511   2.334   1.245 -0.0164  0.4728  0.2780
  926SOL    HW1 2777   0.604   2.313   1.230 -0.3882 -0.8135 -0.3922
  926SOL    HW2 2778   0.476   2.256   1.289 -0.3653  1.7267  2.3597
  927SOL     OW 2779   1.374   4.304   2.880  0.3638 -0.0255  0.0464
  927SOL    HW1 2780   1.453   4.335   2.835  1.1663 -0.6560  0.9763
  927SOL    HW2 2781   1.309   4.294   2.811  0.5538  2.1624 -0.5142
  928SOL     OW 2782   0.570   3.179   0.526 -0.3674 -0.1870  0.4728
  928SOL    HW1 2783   0.648   3.151   0.479 -1.2388 -1.8551 -0.0761
  928SOL    HW2 2784   0.523   3.235   0.464  1.2826  2.5011  1.5000
  929SOL     OW 2785   0.465   2.723   2.501 -0.2955 -0.1868  0.6216
  929SOL    HW1 2786   0.560   2.728   2.514 -0.2552  1.3398 -0.0262
  929SOL    HW2 2787   0.429   2.786   2.563 -0.7282  0.5847 -0.3798
  930SOL     OW 2788   2.869   1.888   1.093 -0.6208  0.0703 -0.4016
  930SOL    HW1 2789   2.959   1.876   1.125 -1.0966 -0.6834  0.7188
  930SOL    HW2 2790   2.875   1.875   0.999  0.2901 -1.0037 -0.2130
  931SOL     OW 2791   1.609   2.510   1.135  0.0489 -0.3156  0.3197
  931SOL    HW1 2792   1.523   2.534   1.167 -0.0390 -0.7496  0.4240
  931SOL    HW2 2793   1.663   2.588   1.148 -0.6738  0.4392 -1.0637
  932SOL     OW 2794   3.047   1.759   2.678  0.4044  0.1378  0.1894
  932SOL    HW1 2795   3.103   1.797   2.611 -0.9271  1.7932 -0.0529
  932SOL    HW2 2796   3.065   1.665   2.674  1.3065  0.3445 -1.5678
  933SOL     OW 2797   4.500   2.084   0.164 -0.4254 -0.4846  0.8306
  933SOL    HW1 2798   4.481   2.134   0.243 -1.9851 -0.8456  0.7160
  933SOL    HW2 2799   4.418   2.037   0.145  0.9412 -3.0768  0.9320
  934SOL     OW 2800   0.406   3.622   3.483 -0.4229  0.0909 -0.2702
  934SOL    HW1 2801   0.427   3.528   3.480 -2.0047 -0.3308  0.6128
  934SOL    HW2 2802   0.367   3.634   3.569  1.3097  1.9443  0.3260
  935SOL     OW 2803   4.143   2.437   2.607  0.3685  0.4852 -0.1339
  935SOL    HW1 2804   4.165   2.504   2.542 -1.4103 -0.5197 -1.8717
  935SOL    HW2 2805   4.049   2.449   2.623  0.3485 -0.6243  0.6875
  936SOL     OW 2806   4.441   2.856   3.244  0.3172  0.4829  0.4057
  936SOL    HW1 2807   4.501   2.809   3.185  1.4543  1.2498  0.9085
  936SOL    HW2 2808   4.497   2.920   3.288 -0.9147  1.3247  0.7981
  937SOL     OW 2809   4.434   1.042   4.443 -0.2209  0.0005  0.0113
  937SOL    HW1 2810   4.372   0.979   4.480  1.9280 -1.5467  1.1626
  937SOL    HW2 2811   4.472   1.086   4.519  0.4388  0.5736 -0.6345
  938SOL     OW 2812   3.864   3.855   4.253  0.3841  0.2531  0.1207
  938SOL    HW1 2813   3.886   3.887   4.166  0.0414  0.5116  0.1295
  938SOL    HW2 2814   3.944   3.867   4.304  1.1669 -1.5069 -0.5924
  939SOL     OW 2815   1.620   0.451   2.903  0.0866  0.1609 -0.0049
  939SOL    HW1 2816   1.542   0.396   2.897 -0.4502  1.0381 -1.4820
  939SOL    HW2 2817   1.591   0.538   2.874  1.4077  0.7268  0.2725
  940SOL     OW 2818   2.031   2.811   1.047 -0.3839 -0.3472 -0.5578
  940SOL    HW1 2819   2.030   2.737   0.985 -0.8486 -1.4026  0.6762
  940SOL    HW2 2820   2.113   2.799   1.095 -1.0342 -0.7852  0.4720
  941SOL     OW 2821   3.472   2.505   2.604  0.1373 -0.3487 -0.2057
  941SOL    HW1 2822   3.504   2.583   2.558 -0.8581 -1.1976 -2.4656
  941SOL    HW2 2823   3.507   2.514   2.693  0.7456  2.2334 -0.6186
  942SOL     OW 2824   1.105   3.539   0.505  0.3628 -0.0837 -0.5494
  942SOL    HW1 2825   1.119   3.632   0.520 -0.1873  0.1147 -1.2111
  942SOL    HW2 2826   1.161   3.518   0.431 -0.4621  0.0213 -1.2214
  943SOL     OW 2827   3.607   2.636   3.932  0.2608 -0.6306 -0.7923
  943SOL    HW1 2828   3.609   2.575   3.858  1.4879 -0.2990 -1.0436
  943SOL    HW2 2829   3.515   2.664   3.936 -0.4735 -2.8705 -0.3304
  944SOL     OW 2830   4.435   0.389   0.559 -0.2349  0.1763 -0.0834
  944SOL    HW1 2831   4.404   0.346   0.479  1.2294  1.9224 -1.7014
  944SOL    HW2 2832   4.510   0.441   0.530  0.1042  1.1839  2.3825
  945SOL     OW 2833   2.766   2.274   3.022 -0.3476 -0.1944  0.1116
  945SOL    HW1 2834   2.717   2.211   2.969  0.8177 -0.6962 -0.4049
  945SOL    HW2 2835   2.701   2.310   3.083 -0.8639 -2.5438  1.0435
  946SOL     OW 2836   1.907   2.735   0.115  0.6319 -0.1334 -0.3371
  946SOL    HW1 2837   1.907   2.714   0.208  1.4269  0.7162 -0.1396
  946SOL    HW2 2838   1.956   2.817   0.108 -2.1643  1.6057 -1.1126
  947SOL     OW 2839   1.309   0.875   0.738 -0.3468  0.5757 -0.1552
  947SOL    HW1 2840   1.366   0.799   0.752  1.0935  1.5959 -0.2483
  947SOL    HW2 2841   1.261   0.855   0.658  0.0659 -0.1975 -0.2152
  948SOL     OW 2842   0.545   0.946   4.470 -0.0882  0.4295 -0.1083
  948SOL    HW1 2843   0.589   0.996   4.401  0.8086  0.3481  0.3998
  948SOL    HW2 2844   0.593   0.864   4.474 -0.0467  0.4915  0.7181
  949SOL     OW 2845   2.126   2.293   2.328 -0.2024 -0.1073 -0.3898
  949SOL    HW1 2846   2.093   2.249   2.250 -0.1092 -0.9942  0.0500
  949SOL    HW2 2847   2.141   2.222   2.391  1.7521  0.3288 -0.2896
  950SOL     OW 2848   3.200   2.820   1.399 -0.3101  0.4505 -0.5093
  950SOL    HW1 2849   3.160   2.783   1.321  1.1405  1.7302 -1.9412
  950SOL    HW2 2850   3.127   2.857   1.449 -1.1756  0.5019 -1.7704
  951SOL     OW 2851   2.827   0.806   0.973  0.2020  0.2957 -0.2745
  951SOL    HW1 2852   2.752   0.747   0.983  0.7764 -0.5380 -0.7225
  951SOL    HW2 2853   2.823   0.863   1.049 -2.4046  2.0434 -1.5962
  952SOL     OW 2854   3.512   2.755   3.411 -0.3140  0.4875 -0.2267
  952SOL    HW1 2855   3.547   2.782   3.326 -0.7092  0.0301 -0.5346
  952SOL    HW2 2856   3.510   2.836   3.462  0.5165  0.6534 -0.4372
  953SOL     OW 2857   3.093   3.092   2.946  0.0221  0.6232 -0.1775
  953SOL    HW1 2858   3.067   3.175   2.987  0.5961 -0.2321  2.0470
  953SOL    HW2 2859   3.171   3.065   2.994  0.7753 -0.4511 -1.9231
  954SOL     OW 2860   3.648   4.275   0.772  0.8561  0.2178  0.2095
  954SOL    HW1 2861   3.672   4.249   0.861 -0.0950 -1.3127  0.0510
  954SOL    HW2 2862   3.730   4.277   0.724  1.0297 -2.6527  0.2400
  955SOL     OW 2863   3.570   4.401   4.190 -0.1146  0.0674  0.2871
  955SOL    HW1 2864   3.541   4.360   4.272  0.3752 -1.4330 -0.2680
  955SOL    HW2 2865   3.544   4.493   4.199 -0.2298 -0.1040  2.0524
  956SOL     OW 2866   3.123   4.446   2.566 -0.2345 -0.3015 -0.0320
  956SOL    HW1 2867   3.147   4.443   2.474  0.0441  3.4935 -0.2664
  956SOL    HW2 2868   3.043   4.500   2.568 -0.1821 -0.2238  1.9410
  957SOL     OW 2869   3.859   3.105   4.315 -0.1569 -0.7202 -0.4341
  957SOL    HW1 2870   3.954   3.104   4.317 -0.1385  0.2968  0.5329
  957SOL    HW2 2871   3.834   3.015   4.295  1.0091 -0.5520 -3.0140
  958SOL     OW 2872   0.306   0.528   3.282 -0.1077 -0.7193 -0.0473
  958SOL    HW1 2873   0.376   0.563   3.338  0.5414 -1.3450 -0.4595
  958SOL    HW2 2874   0.332   0.437   3.265 -2.0404 -1.6171  1.4510
  959SOL     OW 2875   4.108   1.605  -0.016 -0.1697 -0.1804  0.0571
  959SOL    HW1 2876   4.113   1.616   0.079  2.7235  0.3109 -0.0639
  959SOL    HW2 2877   4.118   1.511  -0.030  1.1925 -0.0809  0.2223
  960SOL     OW 2878   0.323   1.487   0.707 -0.2132 -0.0311 -0.5488
  960SOL    HW1 2879   0.371   1.432   0.768  1.3982 -0.5348 -2.1845
  960SOL    HW2 2880   0.374   1.568   0.702  0.5411 -0.5665 -2.2969
  961SOL     OW 2881   0.708   1.656   0.331 -0.2978  0.4855  0.1573
  961SOL    HW1 2882   0.801   1.646   0.313 -0.4151  0.0389 -0.2002
  961SOL    HW2 2883   0.688   1.590   0.398 -0.6470 -0.3822 -0.7750
  962SOL     OW 2884   1.846   1.919   2.986  0.2339 -0.7405 -0.9998
  962SOL    HW1 2885   1.821   1.867   3.063 -2.3737  0.7132 -0.7396
  962SOL    HW2 2886   1.769   1.974   2.969  2.0125  1.4213 -2.5941
  963SOL     OW 2887   1.842   1.982   0.165 -0.3034  0.0836 -0.3648
  963SOL    HW1 2888   1.937   1.977   0.153 -0.5438 -1.6240 -2.2539
  963SOL    HW2 2889   1.813   2.044   0.098 -0.4704  1.5341  0.9860
  964SOL     OW 2890   4.362   3.186   3.550 -0.3082 -0.1721  0.1095
  964SOL    HW1 2891   4.339   3.234   3.629  0.6220  2.3783 -1.0560
  964SOL    HW2 2892   4.282   3.185   3.498 -0.2835  0.3821  0.0506
  965SOL     OW 2893   3.189   3.426   2.854 -0.5057 -0.4054  0.1350
  965SOL    HW1 2894   3.160   3.508   2.814  2.3453  1.1387  0.9389
  965SOL    HW2 2895   3.177   3.440   2.948 -0.5873 -1.1915  0.2487
  966SOL     OW 2896   4.442   4.208   2.610 -0.3314 -1.0034 -0.7701
  966SOL    HW1 2897   4.437   4.256   2.692 -2.6087  0.2457 -1.5466
  966SOL    HW2 2898   4.504   4.257   2.556  1.5115 -2.0737  0.2710
  967SOL     OW 2899   3.115   0.055   0.510 -0.4707  0.0695  0.3151
  967SOL    HW1 2900   3.094  -0.018   0.451 -1.7320 -0.1928  1.0500
  967SOL    HW2 2901   3.122   0.131   0.452  0.5619 -0.5527 -0.4287
  968SOL     OW 2902   1.532   1.899   2.648  0.5280 -0.0662 -0.3496
  968SOL    HW1 2903   1.550   1.807   2.668  1.2792  0.4850  1.7453
  968SOL    HW2 2904   1.455   1.896   2.592 -0.2639 -1.9477  0.7331
  969SOL     OW 2905   4.181   2.999   3.724  0.1748  0.2012 -0.3583
  969SOL    HW1 2906   4.124   2.923   3.735  1.3677 -0.5266  1.1314
  969SOL    HW2 2907   4.262   2.964   3.688  0.8295  0.6903  0.5822
  970SOL     OW 2908   0.991   2.900   0.555  0.3200 -0.0834  0.6028
  970SOL    HW1 2909   0.929   2.835   0.587  0.9711  0.0304  2.1923
  970SOL    HW2 2910   0.988   2.891   0.459 -0.2086 -1.8590  0.7533
  971SOL     OW 2911   3.887   0.941   3.697 -0.2899 -0.8750  0.2459
  971SOL    HW1 2912   3.807   0.890   3.707 -0.2094 -1.1056 -0.2535
  971SOL    HW2 2913   3.922   0.914   3.612  0.0773 -0.4391  0.2567
  972SOL     OW 2914   4.019   2.504   0.583  0.7981  0.5723 -0.1173
  972SOL    HW1 2915   3.971   2.536   0.507  0.1178  0.1321  0.1184
  972SOL    HW2 2916   4.104   2.477   0.548  0.2518 -0.2719 -0.8530
  973SOL     OW 2917   3.452   3.678   2.100 -0.3765 -0.2435 -0.4599
  973SOL    HW1 2918   3.479   3.705   2.012 -0.5224  0.3669 -0.3212
  973SOL    HW2 2919   3.519   3.615   2.127  1.0424  1.3433 -0.0732
  974SOL     OW 2920   4.308   3.650   1.057 -0.0951 -0.4888  0.1453
  974SOL    HW1 2921   4.402   3.654   1.076 -0.3292  1.6802  1.1939
  974SOL    HW2 2922   4.286   3.557   1.065  2.4102 -1.5216 -2.8773
  975SOL     OW 2923   0.300   4.475   4.297 -0.1648  0.7430 -0.0398
  975SOL    HW1 2924   0.340   4.562   4.306 -0.0138  0.5996  0.7657
  975SOL    HW2 2925   0.351   4.419   4.356 -0.2325  0.0916 -0.5860
  976SOL     OW 2926   3.168   1.508   2.758 -0.1810  0.6938  0.0508
  976SOL    HW1 2927   3.179   1.429   2.705 -2.4598  0.5801 -0.3366
  976SOL    HW2 2928   3.172   1.478   2.849  2.8682  0.7654  0.0256
  977SOL     OW 2929   2.598   2.261   2.368  0.2314  0.4148  0.1820
  977SOL    HW1 2930   2.516   2.249   2.321 -0.1422 -1.5028  1.2151
  977SOL    HW2 2931   2.621   2.352   2.353 -1.5937  0.7467 -0.9125
  978SOL     OW 2932   0.472   4.135   3.961 -0.3448 -0.5008  0.5168
  978SOL    HW1 2933   0.526   4.202   3.918  0.5934 -1.4022  0.2471
  978SOL    HW2 2934   0.410   4.185   4.014 -0.6530  0.6187 -0.8400
  979SOL     OW 2935   2.327   4.313   1.190 -0.2886 -0.1900 -0.2604
  979SOL    HW1 2936   2.420   4.298   1.173 -0.2793 -0.4099 -0.0349
  979SOL    HW2 2937   2.286   4.312   1.104 -0.1169 -0.3502 -0.3409
  980SOL     OW 2938   0.920   0.075   1.142  0.9318  0.7795  0.2731
  980SOL    HW1 2939   0.903  -0.008   1.187 -2.1147  0.5359 -1.0842
  980SOL    HW2 2940   0.988   0.117   1.194  0.4545 -1.2487  2.7339
  981SOL     OW 2941   0.311   4.341   4.058  0.0196  0.1565 -0.6475
  981SOL    HW1 2942   0.295   4.390   4.138  1.8925  0.2621 -0.3035
  981SOL    HW2 2943   0.234   4.358   4.004 -2.1554 -1.3021  1.7352
  982SOL     OW 2944   3.192   3.803   3.574  0.0634 -0.5286  0.0560
  982SOL    HW1 2945   3.114   3.774   3.621 -0.2940 -1.6162 -1.1639
  982SOL    HW2 2946   3.252   3.831   3.643 -1.5019  0.6588  1.0048
  983SOL     OW 2947   4.118   2.531   1.757 -0.5023  0.2090 -0.3099
  983SOL    HW1 2948   4.206   2.554   1.728 -0.8724  1.3344 -0.5863
  983SOL    HW2 2949   4.131   2.459   1.819  0.5545 -0.0317 -0.7871
  984SOL     OW 2950   2.962   4.514   4.107  0.3372  0.1100  0.4655
  984SOL    HW1 2951   2.910   4.466   4.042  0.6292 -0.1140  0.3954
  984SOL    HW2 2952   3.010   4.446   4.154  0.3734  0.2981  0.7003
  985SOL     OW 2953   3.215   3.256   0.470  0.4505  0.7251 -0.0302
  985SOL    HW1 2954   3.128   3.225   0.496  0.6570 -0.8130 -1.0722
  985SOL    HW2 2955   3.201   3.303   0.388  0.7228 -0.5257 -0.8205
  986SOL     OW 2956   1.933   3.294   3.074  0.3365  0.4086 -0.3911
  986SOL    HW1 2957   1.990   3.364   3.042  1.5026 -0.6196 -0.6195
  986SOL    HW2 2958   1.984   3.251   3.142 -1.0501  0.8312  0.9629
  987SOL     OW 2959   2.950   0.615   3.910  0.3230 -0.1815  0.3676
  987SOL    HW1 2960   2.904   0.632   3.993 -2.4328 -1.5887 -0.7722
  987SOL    HW2 2961   3.007   0.692   3.899 -2.6127  2.3594  1.3591
  988SOL     OW 2962   2.369   0.827   4.125  0.9654  0.1981 -0.3404
  988SOL    HW1 2963   2.355   0.922   4.126  0.2155  0.0987  0.9338
  988SOL    HW2 2964   2.448   0.815   4.072  1.4440  1.5940  0.0087
  989SOL     OW 2965   0.907   0.616   3.708 -0.4280  0.0751  0.8823
  989SOL    HW1 2966   0.860   0.532   3.706 -0.5596  0.1542  0.4182
  989SOL    HW2 2967   0.977   0.603   3.772  0.2845 -0.7950 -0.0377
  990SOL     OW 2968   2.193   2.389   3.626  0.0646 -0.4303 -0.7750
  990SOL    HW1 2969   2.146   2.346   3.697  0.1106 -2.0463 -1.6729
  990SOL    HW2 2970   2.178   2.482   3.639 -2.3018 -0.8315 -0.2887
  991SOL     OW 2971   2.316   0.879   1.075  0.1846  0.8644  0.3321
  991SOL    HW1 2972   2.249   0.815   1.053  1.4111  0.4296 -2.5309
  991SOL    HW2 2973   2.290   0.959   1.029  2.0452  0.3953 -1.6818
  992SOL     OW 2974   1.118   2.639   3.880  0.1458 -0.1148  0.4903
  992SOL    HW1 2975   1.138   2.666   3.969 -2.4255 -0.9165  1.4032
  992SOL    HW2 2976   1.034   2.593   3.887 -0.1482 -0.1872 -2.3521
  993SOL     OW 2977   1.963   2.394   2.757  0.2748 -0.6077  0.2459
  993SOL    HW1 2978   1.968   2.298   2.761 -1.3284 -0.6725  1.2829
  993SOL    HW2 2979   2.005   2.424   2.838  1.4855 -0.3742 -0.4437
  994SOL     OW 2980   0.158   3.904  -0.024 -0.4074  0.3651  0.8168
  994SOL    HW1 2981   0.242   3.912   0.020 -0.1633 -1.3368  0.7157
  994SOL    HW2 2982   0.100   3.963   0.025  0.5361  0.6376  1.6440
  995SOL     OW 2983   1.028   2.073   0.459  0.2183 -0.7217 -0.3526
  995SOL    HW1 2984   1.084   2.149   0.449 -0.4664 -0.1719 -0.0899
  995SOL    HW2 2985   0.944   2.108   0.489  0.6255 -1.7678  2.3504
  996SOL     OW 2986   3.542   3.154   0.398 -0.4884  0.1809 -0.2097
  996SOL    HW1 2987   3.464   3.106   0.368 -0.1135 -0.9387  0.5080
  996SOL    HW2 2988   3.609   3.087   0.407  0.2561  0.9608  0.2012
  997SOL     OW 2989   0.072   3.717   2.384 -0.1285 -0.5857  0.0309
  997SOL    HW1 2990  -0.004   3.756   2.427 -0.4899  1.4109 -2.2166
  997SOL    HW2 2991   0.145   3.737   2.442 -0.5242  2.3882 -0.3358
  998SOL     OW 2992   3.709   3.759   3.285 -0.9482 -0.3740 -0.1759
  998SOL    HW1 2993   3.783   3.807   3.323 -0.7461 -2.6726  2.7132
  998SOL    HW2 2994   3.634   3.817   3.296 -0.4047  0.0552  1.5761
  999SOL     OW 2995   4.089   0.199   2.745  0.5951  0.0752 -0.1577
  999SOL    HW1 2996   4.126   0.244   2.670 -2.5448 -1.3939 -2.8578
  999SOL    HW2 2997   4.097   0.106   2.724  0.4260 -0.4243  1.7941
 1000SOL     OW 2998   4.016   1.685   1.802 -0.8719  0.3184 -0.2916
 1000SOL    HW1 2999   4.035   1.604   1.756 -1.0214 -0.1126  0.3819
 1000SOL    HW2 3000   4.017   1.752   1.735  1.1320  0.0457 -0.5796
 1001SOL     OW 3001   3.739   2.985   0.472  0.1453 -0.2379 -0.1542
 1001SOL    HW1 3002   3.805   3.043   0.510  1.0852 -0.9457 -0.6627
 1001SOL    HW2 3003   3.756   2.986   0.378 -2.1684  1.4960 -0.6403
 1002SOL     OW 3004   0.810   2.277   2.897  0.1487  0.4095  0.1696
 1002SOL    HW1 3005   0.761   2.237   2.825  0.1111  1.7864 -0.5907
 1002SOL    HW2 3006   0.894   2.231   2.897  0.6293  1.1968 -1.5699
 1003SOL     OW 3007   0.636   3.877   3.062 -0.2344  0.2174 -0.4886
 1003SOL    HW1 3008   0.617   3.820   3.136 -0.8025  1.4070  0.3077
 1003SOL    HW2 3009   0.613   3.825   2.985  1.6188 -1.5166  0.0611
 1004SOL     OW 3010   1.155   1.266   2.020  0.6875 -0.1697  0.0415
 1004SOL    HW1 3011   1.155   1.182   2.066  0.3165 -1.0444 -1.4758
 1004SOL    HW2 3012   1.240   1.270   1.976  1.5629  1.2388  1.7391
 1005SOL     OW 3013   0.470   3.111   0.196  0.3975  0.1088 -0.1442
 1005SOL    HW1 3014   0.531   3.111   0.122 -0.0134  1.0644 -0.4938
 1005SOL    HW2 3015   0.466   3.202   0.224  0.4226 -0.2159  0.9674
 1006SOL     OW 3016   1.168   1.003   3.432 -0.2572 -0.4152 -0.6839
 1006SOL    HW1 3017   1.165   0.942   3.358 -0.3506 -1.3927  0.1116
 1006SOL    HW2 3018   1.081   0.996   3.472  0.2700 -0.9609  0.3711
 1007SOL     OW 3019   3.316   4.127   0.299  0.0573  0.2546 -0.3015
 1007SOL    HW1 3020   3.333   4.183   0.222  2.3652 -0.6337 -0.5197
 1007SOL    HW2 3021   3.403   4.110   0.335 -0.8650 -0.6998  1.5677
 1008SOL     OW 3022   3.928   4.001   1.506  0.4912 -0.4100 -0.1533
 1008SOL    HW1 3023   3.994   3.976   1.571 -0.6136 -1.0633  0.7552
 1008SOL    HW2 3024   3.882   3.920   1.486 -1.7307  0.4171  1.1990
 1009SOL     OW 3025   4.102   3.021   4.404  0.0282  0.8571  0.3935
 1009SOL    HW1 3026   4.116   3.079   4.479 -0.8770 -1.3904  2.4606
 1009SOL    HW2 3027   4.187   2.977   4.393 -0.0445  0.6587  0.6096
 1010SOL     OW 3028   3.698   0.672   3.139 -0.0010 -0.1036  0.0664
 1010SOL    HW1 3029   3.622   0.635   3.184 -0.0542  0.6491  0.6140
 1010SOL    HW2 3030   3.727   0.742   3.196  1.8411 -1.1332  0.4657
 1011SOL     OW 3031   2.391   1.805   3.904 -0.0675  0.3371 -0.5446
 1011SOL    HW1 3032   2.313   1.833   3.857 -0.4795 -0.2271 -0.1996
 1011SOL    HW2 3033   2.390   1.710   3.900  1.2552  0.3447 -1.5750
 1012SOL     OW 3034   4.077   3.017   2.350 -0.0701 -0.2549 -0.1977
 1012SOL    HW1 3035   4.077   3.017   2.255 -0.3654  2.5571 -0.2867
 1012SOL    HW2 3036   4.150   3.074   2.374 -0.4618 -0.3172  1.2312
 1013SOL     OW 3037   3.012   3.953   3.130  0.7357  0.5520 -0.8520
 1013SOL    HW1 3038   2.991   3.917   3.044 -0.9294 -0.3595 -0.1113
 1013SOL    HW2 3039   2.982   3.887   3.193  1.0736  1.5827  0.4554
 1014SOL     OW 3040   3.681   1.183   2.990  0.3797  0.5170 -0.3351
 1014SOL    HW1 3041   3.697   1.275   2.969 -0.4559  0.3810 -1.6872
 1014SOL    HW2 3042   3.603   1.184   3.045  0.6299  0.6519  0.0143
 1015SOL     OW 3043  -0.027   2.644   2.129  0.2226  0.0267 -0.1564
 1015SOL    HW1 3044   0.001   2.734   2.148  1.7913 -0.2797 -0.8213
 1015SOL    HW2 3045   0.038   2.612   2.066 -1.9306 -0.6443 -2.1679
 1016SOL     OW 3046   4.131   0.978   4.148 -0.3657  0.5400  0.2125
 1016SOL    HW1 3047   4.121   1.013   4.059  0.8017  0.3283 -0.0130
 1016SOL    HW2 3048   4.197   1.034   4.188 -0.7330  0.4986  0.8814
 1017SOL     OW 3049   2.069   4.271   4.075  0.1570  0.5652 -0.1202
 1017SOL    HW1 3050   2.148   4.323   4.087  0.3896 -0.0926  1.3701
 1017SOL    HW2 3051   2.082   4.194   4.131 -0.7285 -0.4845 -1.2897
 1018SOL     OW 3052   1.136   0.907   4.390 -0.3507 -0.3089  0.1733
 1018SOL    HW1 3053   1.230   0.924   4.378 -0.9749  4.0670 -0.2202
 1018SOL    HW2 3054   1.128   0.879   4.481  1.1622  1.8442  1.0516
 1019SOL     OW 3055   1.763  -0.021   3.909  0.4591  0.1825  0.0558
 1019SOL    HW1 3056   1.837   0.028   3.873  1.3377 -0.9643  0.2759
 1019SOL    HW2 3057   1.697   0.047   3.926  0.7969  1.0098 -1.7229
 1020SOL     OW 3058   2.301   4.508   2.852  0.4794  0.2946  0.2011
 1020SOL    HW1 3059   2.302   4.519   2.757 -1.2257  1.3936  0.2652
 1020SOL    HW2 3060   2.332   4.418   2.866  0.2631 -0.0719 -1.4270
 1021SOL     OW 3061   4.032   3.647   2.657 -0.4695 -0.0769  0.3325
 1021SOL    HW1 3062   3.953   3.593   2.648 -1.1067  0.8436  0.2613
 1021SOL    HW2 3063   4.096   3.604   2.600 -0.4187 -1.6938  1.5284
 1022SOL     OW 3064   0.326   0.160   0.245  0.3156 -0.0300  0.5313
 1022SOL    HW1 3065   0.420   0.146   0.256  0.5568  0.7039 -0.4009
 1022SOL    HW2 3066   0.304   0.230   0.307  0.5198  0.2327  0.3094
 1023SOL     OW 3067   0.655   1.320   3.643  0.2254  0.2920  0.0357
 1023SOL    HW1 3068   0.602   1.321   3.563  1.5445  1.2637 -0.8816
 1023SOL    HW2 3069   0.707   1.401   3.638  1.6173 -0.5000  0.9910
 1024SOL     OW 3070   3.035   1.664   0.594  0.2844 -0.1986  0.1642
 1024SOL    HW1 3071   3.124   1.662   0.559  0.6247  1.5145  0.8770
 1024SOL    HW2 3072   3.034   1.593   0.659  0.8957 -0.6896 -0.3412
 1025SOL     OW 3073   1.166   0.861   2.830  0.0218  0.2720  0.3104
 1025SOL    HW1 3074   1.089   0.903   2.868 -0.3761  0.5730 -0.8031
 1025SOL    HW2 3075   1.140   0.769   2.819 -0.5459  0.5674 -0.9676
 1026SOL     OW 3076   1.331   4.376   4.327 -0.0237  0.2422 -0.3059
 1026SOL    HW1 3077   1.296   4.424   4.253  1.6211 -1.7760 -2.5626
 1026SOL    HW2 3078   1.306   4.285   4.311  1.0061 -0.3671  1.2253
 1027SOL     OW 3079   1.500   2.446   1.885  0.4583 -0.7209 -0.0998
 1027SOL    HW1 3080   1.416   2.406   1.906 -0.5275  0.7692 -0.9706
 1027SOL    HW2 3081   1.565   2.378   1.901 -0.8827 -1.7960  0.9124
 1028SOL     OW 3082   2.628   3.396   3.193 -0.1586  0.1906 -0.0473
 1028SOL    HW1 3083   2.583   3.478   3.216  0.7202  0.8903 -0.7152
 1028SOL    HW2 3084   2.589   3.370   3.109  0.5572  0.7333 -0.5668
 1029SOL     OW 3085   4.210   1.323   3.358  0.2904  0.4015 -0.2507
 1029SOL    HW1 3086   4.235   1.399   3.411  0.4294  0.1133  0.1014
 1029SOL    HW2 3087   4.160   1.268   3.418  1.7635 -0.6805  0.0429
 1030SOL     OW 3088   0.095   4.324   2.380 -0.0606  0.2979  0.6040
 1030SOL    HW1 3089   0.155   4.304   2.308  0.2180  0.2520  0.8457
 1030SOL    HW2 3090   0.085   4.419   2.376 -0.1867  0.2763  0.3949
 1031SOL     OW 3091   3.112   4.091   3.867  0.0992  0.3215 -0.2222
 1031SOL    HW1 3092   3.142   4.002   3.885 -0.9748  0.0471  0.3089
 1031SOL    HW2 3093   3.191   4.145   3.875  0.6839 -0.5169 -0.1404
 1032SOL     OW 3094   3.932   3.890   3.397  0.2957 -0.3334  0.4901
 1032SOL    HW1 3095   4.014   3.858   3.434  0.2986  1.6340  2.4289
 1032SOL    HW2 3096   3.905   3.960   3.457 -1.4710  0.8309 -1.5329
 1033SOL     OW 3097   1.595   1.925   0.698 -0.4040 -0.1214  0.2482
 1033SOL    HW1 3098   1.564   1.972   0.775 -0.3866  0.1681  0.0779
 1033SOL    HW2 3099   1.619   1.993   0.635 -0.5883 -0.3553 -0.0815
 1034SOL     OW 3100   0.744   1.412   1.285  0.6169  0.2196  0.3036
 1034SOL    HW1 3101   0.762   1.485   1.344  3.0355  0.7323 -0.9511
 1034SOL    HW2 3102   0.820   1.355   1.294 -0.9120 -1.8787  0.7475
 1035SOL     OW 3103   2.081   3.111   3.469  0.8305  0.0604 -0.0088
 1035SOL    HW1 3104   2.070   3.020   3.443  0.2834  0.2838 -0.5683
 1035SOL    HW2 3105   1.992   3.144   3.481  1.0395  0.2732  1.0924
 1036SOL     OW 3106   0.887   3.909   2.665 -0.0589  0.0727  0.3305
 1036SOL    HW1 3107   0.953   3.840   2.669 -0.9577 -0.9214 -1.2149
 1036SOL    HW2 3108   0.804   3.863   2.655 -0.7525  1.3639 -0.1253
 1037SOL     OW 3109   2.535   0.771   3.538  0.0907 -0.2079 -0.5370
 1037SOL    HW1 3110   2.519   0.844   3.598  3.7357  0.2441  0.1531
 1037SOL    HW2 3111   2.571   0.702   3.594  1.0775 -0.7682 -1.8066
 1038SOL     OW 3112   4.015   1.373   2.864 -0.2958  0.1333  0.3893
 1038SOL    HW1 3113   4.059   1.295   2.897 -0.0290  0.3743  0.6081
 1038SOL    HW2 3114   3.941   1.386   2.922 -1.1953 -0.7867 -0.5050
 1039SOL     OW 3115   2.172   2.653   1.944  0.0708 -0.1116  0.3162
 1039SOL    HW1 3116   2.093   2.678   1.896  1.3417  0.5928 -1.5079
 1039SOL    HW2 3117   2.208   2.736   1.977  0.2800 -0.3811  0.7830
 1040SOL     OW 3118   1.976   0.469   4.409 -0.3985 -0.1478 -0.1666
 1040SOL    HW1 3119   2.041   0.472   4.479  0.0863 -1.3818 -0.5406
 1040SOL    HW2 3120   1.927   0.389   4.425 -1.4042  0.4272 -0.2760
 1041SOL     OW 3121   0.867   4.326   1.261  0.7212  0.1554  0.6996
 1041SOL    HW1 3122   0.814   4.265   1.313  0.9995 -2.5014 -1.8366
 1041SOL    HW2 3123   0.957   4.312   1.292  0.4367  2.1815  2.6838
 1042SOL     OW 3124   1.183   0.614   3.370  0.3712 -0.1701 -0.3047
 1042SOL    HW1 3125   1.104   0.563   3.383  2.1823 -2.7798  1.4503
 1042SOL    HW2 3126   1.188   0.627   3.275 -2.5401  0.9364 -0.4085
 1043SOL     OW 3127   1.878   0.425   2.190  0.1142 -0.5843 -0.3667
 1043SOL    HW1 3128   1.798   0.411   2.141  0.0528 -0.3625 -0.3328
 1043SOL    HW2 3129   1.943   0.368   2.148  0.0429 -0.4559 -0.6531
 1044SOL     OW 3130   0.375   0.699   2.160  0.5365  0.0467 -0.2289
 1044SOL    HW1 3131   0.399   0.791   2.158  2.0077 -0.3186 -1.3636
 1044SOL    HW2 3132   0.407   0.664   2.077 -0.7315 -1.3179 -0.1916
 1045SOL     OW 3133   0.929   1.689   0.944  0.2970 -0.1450  0.5980
 1045SOL    HW1 3134   1.006   1.634   0.961  1.9207  0.9936 -2.2854
 1045SOL    HW2 3135   0.854   1.631   0.958  1.6756 -1.6429  2.3339
 1046SOL     OW 3136   0.980   0.851   1.262 -0.3530  0.4513 -0.5923
 1046SOL    HW1 3137   1.019   0.894   1.338  2.0764  0.9951 -2.0441
 1046SOL    HW2 3138   0.982   0.757   1.284 -2.3363  0.7395  1.1096
 1047SOL     OW 3139   0.832   0.274   1.331 -0.1008 -0.5794 -0.3444
 1047SOL    HW1 3140   0.751   0.224   1.340 -0.9830  0.5761 -1.4896
 1047SOL    HW2 3141   0.866   0.249   1.245 -0.0078  0.0085 -0.4823
 1048SOL     OW 3142   4.450   4.311   2.854  0.4510  0.2438 -0.4020
 1048SOL    HW1 3143   4.358   4.331   2.871  0.6591 -0.0425  1.1445
 1048SOL    HW2 3144   4.461   4.221   2.883  1.3889  0.5148  0.1099
 1049SOL     OW 3145   3.031   0.321   0.799 -0.0503 -0.6073  0.5601
 1049SOL    HW1 3146   2.984   0.398   0.769  1.3605  0.1798  0.2832
 1049SOL    HW2 3147   3.009   0.313   0.892  0.5760  0.7348  0.8365
 1050SOL     OW 3148   3.644   0.231   3.177  0.0107  0.0526  0.2196
 1050SOL    HW1 3149   3.670   0.209   3.267 -0.7010 -0.8285  0.2342
 1050SOL    HW2 3150   3.700   0.304   3.152 -0.1066  0.6364  1.5616
 1051SOL     OW 3151   1.533   2.941   0.269 -0.4816 -0.2062 -1.0299
 1051SOL    HW1 3152   1.450   2.922   0.225 -2.0044  0.6751  1.3119
 1051SOL    HW2 3153   1.525   3.032   0.298  1.1085 -0.2536 -0.3485
 1052SOL     OW 3154   0.287   1.043   4.259  0.6960 -0.4207 -0.1546
 1052SOL    HW1 3155   0.372   1.081   4.280  0.7375  0.1754 -1.3443
 1052SOL    HW2 3156   0.306   0.975   4.195  0.1000  1.1729 -2.1241
 1053SOL     OW 3157   0.219   2.427   2.917 -0.2531 -0.1978  0.5826
 1053SOL    HW1 3158   0.217   2.359   2.849 -1.2374  1.3559 -1.0403
 1053SOL    HW2 3159   0.193   2.381   2.997 -0.7592 -1.7741 -0.4298
 1054SOL     OW 3160   4.228   4.256   1.577  0.2623  0.6653 -0.1247
 1054SOL    HW1 3161   4.163   4.243   1.508 -1.7474  0.8897  1.6220
 1054SOL    HW2 3162   4.224   4.350   1.597  0.5509  0.5472  0.5366
 1055SOL     OW 3163   0.388   2.270   0.226  0.1437  0.3458  0.5047
 1055SOL    HW1 3164   0.425   2.335   0.285  0.8668 -1.0554  1.6377
 1055SOL    HW2 3165   0.404   2.186   0.268  0.2701 -0.6870 -1.4641
 1056SOL     OW 3166   0.090   3.846   0.796 -0.1350  0.0408  0.6313
 1056SOL    HW1 3167   0.064   3.936   0.818 -0.5915  0.5523 -1.7448
 1056SOL    HW2 3168   0.022   3.814   0.738  0.3106 -1.6776  0.9910
 1057SOL     OW 3169   3.749   2.570   3.293 -0.0683 -0.4430 -0.0428
 1057SOL    HW1 3170   3.692   2.602   3.223 -0.8380 -1.8098 -0.0703
 1057SOL    HW2 3171   3.719   2.617   3.372 -1.3673 -1.2675 -0.0231
 1058SOL     OW 3172   3.815   0.021   4.375 -0.6015  0.0510  0.0071
 1058SOL    HW1 3173   3.744   0.070   4.333 -1.0049 -0.9603 -0.5262
 1058SOL    HW2 3174   3.854  -0.030   4.304  0.1699  0.0117  0.4473
 1059SOL     OW 3175   1.942   3.410   3.995  0.1758  0.0050 -0.3072
 1059SOL    HW1 3176   1.919   3.497   3.961  1.7752  0.5700 -0.0092
 1059SOL    HW2 3177   1.968   3.360   3.918  0.6578  0.2577 -0.3118
 1060SOL     OW 3178   1.428   2.230   0.162  0.0625 -0.4716  0.2360
 1060SOL    HW1 3179   1.413   2.221   0.257 -0.7283  2.2243  0.4488
 1060SOL    HW2 3180   1.514   2.192   0.148  1.0806  0.7829  2.4335
 1061SOL     OW 3181   2.102   4.114   3.444 -0.4448  0.6732 -0.6254
 1061SOL    HW1 3182   2.019   4.082   3.479  0.7251 -1.9885 -0.0827
 1061SOL    HW2 3183   2.137   4.171   3.513 -1.0535  0.5104 -0.1757
 1062SOL     OW 3184   0.608   0.637   4.194  0.2521  0.2176  0.3238
 1062SOL    HW1 3185   0.687   0.668   4.238 -0.1513 -0.1082  1.3039
 1062SOL    HW2 3186   0.536   0.682   4.238 -0.2320 -0.8974  0.7175
 1063SOL     OW 3187   0.114   1.933   1.558  0.0651  0.0548  0.2860
 1063SOL    HW1 3188   0.029   1.975   1.543 -0.5562 -0.5923  1.7481
 1063SOL    HW2 3189   0.153   1.925   1.471 -0.4086  2.3101 -0.1936
 1064SOL     OW 3190   4.203   1.273   1.824  0.2380 -0.3479  0.2688
 1064SOL    HW1 3191   4.158   1.194   1.852 -0.4497  0.0597  0.3282
 1064SOL    HW2 3192   4.296   1.251   1.831  0.0575 -1.3900 -0.4383
 1065SOL     OW 3193   4.363   0.488   2.907  0.5690  0.2524 -0.2204
 1065SOL    HW1 3194   4.435   0.499   2.970 -1.6703  1.5475  2.3437
 1065SOL    HW2 3195   4.334   0.398   2.919  1.2284 -0.0291 -0.6814
 1066SOL     OW 3196   2.839   0.368   1.325  0.1424  0.2522 -0.2399
 1066SOL    HW1 3197   2.931   0.358   1.349 -0.2436 -0.3407  1.0510
 1066SOL    HW2 3198   2.813   0.452   1.363 -0.4552 -0.6638  1.4794
 1067SOL     OW 3199   2.688   4.160   3.203 -0.3021 -0.4089  0.1046
 1067SOL    HW1 3200   2.672   4.143   3.110 -0.4706 -0.3059  0.1141
 1067SOL    HW2 3201   2.669   4.077   3.246 -0.0953 -0.4944  0.0317
 1068SOL     OW 3202   1.992   1.579   3.791 -0.2341  0.5300  0.1184
 1068SOL    HW1 3203   2.079   1.583   3.751 -0.7876  0.2285 -1.1374
 1068SOL    HW2 3204   1.942   1.521   3.735 -1.0361  0.0656  1.2815
 1069SOL     OW 3205   2.521   3.472   0.309 -0.2748  0.3821  0.2021
 1069SOL    HW1 3206   2.444   3.520   0.340  0.3609  1.5887 -0.0340
 1069SOL    HW2 3207   2.575   3.461   0.387 -0.2158  0.4630  0.1735
 1070SOL     OW 3208   1.048   2.875   0.260 -0.8324  0.2450  0.3296
 1070SOL    HW1 3209   0.981   2.817   0.223  0.4924 -0.7770 -0.5349
 1070SOL    HW2 3210   1.054   2.947   0.196 -0.0559 -0.4354 -0.3837
 1071SOL     OW 3211   1.435   0.626   0.390  0.7945 -0.5124 -0.3141
 1071SOL    HW1 3212   1.524   0.591   0.388  0.9626 -0.0609 -1.1523
 1071SOL    HW2 3213   1.433   0.690   0.319 -0.0326 -0.1043  0.0657
 1072SOL     OW 3214   0.725   1.469   2.275  0.3390 -0.0224  0.2695
 1072SOL    HW1 3215   0.631   1.485   2.269  0.5631  1.3879  0.3692
 1072SOL    HW2 3216   0.736   1.426   2.360 -0.1132  0.5738  0.6365
 1073SOL     OW 3217   3.213   1.519   2.365  0.3057  0.3862  0.1795
 1073SOL    HW1 3218   3.252   1.555   2.444  0.5880 -1.0688  0.7303
 1073SOL    HW2 3219   3.158   1.590   2.331 -0.1009  0.9077  1.8514
 1074SOL     OW 3220   3.741   4.429   0.129 -0.1251  0.3931 -0.2712
 1074SOL    HW1 3221   3.670   4.364   0.119  0.2072 -0.3153  1.5712
 1074SOL    HW2 3222   3.771   4.445   0.040 -2.8410  1.0049 -1.1581
 1075SOL     OW 3223   3.270   1.441   0.264  0.1750  0.5457  0.3213
 1075SOL    HW1 3224   3.266   1.525   0.219 -0.8716  0.0910 -0.5006
 1075SOL    HW2 3225   3.187   1.435   0.311  0.5410  0.2764  0.9439
 1076SOL     OW 3226   0.174   4.007   0.407  0.5221 -0.6140  0.4663
 1076SOL    HW1 3227   0.253   3.955   0.418  1.2995  0.1133 -1.3549
 1076SOL    HW2 3228   0.180   4.042   0.318 -2.2577 -1.1988 -0.0422
 1077SOL     OW 3229   3.288   4.012   0.950  0.3800 -0.2247 -0.4803
 1077SOL    HW1 3230   3.379   4.018   0.980  0.2597  0.4421 -0.2496
 1077SOL    HW2 3231   3.270   3.918   0.948  0.9858 -0.3482 -0.2560
 1078SOL     OW 3232   3.809   4.374   2.423  0.0077  0.5097  0.0127
 1078SOL    HW1 3233   3.721   4.388   2.459  0.2908  0.1662  0.8704
 1078SOL    HW2 3234   3.842   4.463   2.408 -1.0794  0.6371 -1.8707
 1079SOL     OW 3235   1.270   4.080   1.997  0.6454 -0.3117 -0.5759
 1079SOL    HW1 3236   1.364   4.083   1.982  0.8290 -0.5229  0.4671
 1079SOL    HW2 3237   1.255   3.996   2.041  0.8789  2.0070  4.7703
 1080SOL     OW 3238   3.863   3.359   1.594 -0.1389 -0.5649 -0.3675
 1080SOL    HW1 3239   3.845   3.266   1.610 -0.2196 -0.5715 -0.5004
 1080SOL    HW2 3240   3.778   3.398   1.576  0.0674 -0.7758 -1.9483
 1081SOL     OW 3241   0.273   2.495   1.210  0.1368  0.3297 -0.1772
 1081SOL    HW1 3242   0.279   2.585   1.242  0.0063 -0.3600  1.8718
 1081SOL    HW2 3243   0.353   2.453   1.241 -0.3778 -0.5873 -0.0896
 1082SOL     OW 3244   2.698   0.427   0.427  0.3003 -0.2326 -0.5758
 1082SOL    HW1 3245   2.659   0.376   0.356 -2.7808  0.9617  0.1028
 1082SOL    HW2 3246   2.638   0.501   0.439  1.6111  0.5198  2.1685
 1083SOL     OW 3247   3.051   4.181   2.522 -0.0740  0.7424  0.0606
 1083SOL    HW1 3248   3.085   4.264   2.555 -1.4918  1.1379  0.6250
 1083SOL    HW2 3249   3.117   4.151   2.459  0.4216  2.3510 -0.2467
 1084SOL     OW 3250   1.633   3.792   0.307  0.1645  0.1181  0.5130
 1084SOL    HW1 3251   1.724   3.816   0.322  0.4457 -0.4440 -0.2345
 1084SOL    HW2 3252   1.627   3.780   0.212 -1.4907  3.4444  0.0339
 1085SOL     OW 3253   1.334   0.399   0.218 -0.1660  0.2737  0.7474
 1085SOL    HW1 3254   1.393   0.340   0.264  0.0429 -0.0697  0.0652
 1085SOL    HW2 3255   1.338   0.481   0.267  1.9127  0.6906 -0.0008
 1086SOL     OW 3256   1.841   1.006   1.198  0.3536 -0.0419 -0.6204
 1086SOL    HW1 3257   1.853   1.013   1.103 -1.6712  0.7442 -0.8676
 1086SOL    HW2 3258   1.747   0.998   1.209  0.5637 -0.1407  1.3408
 1087SOL     OW 3259   1.637   4.125   3.796  0.0038 -0.3899 -0.1253
 1087SOL    HW1 3260   1.715   4.180   3.796 -0.8847  0.8962  0.3036
 1087SOL    HW2 3261   1.619   4.108   3.888 -0.3934 -0.4420 -0.2111
 1088SOL     OW 3262   1.935   3.867   0.263 -0.3374  0.4376  0.1080
 1088SOL    HW1 3263   1.956   3.777   0.240  0.4747  0.2337  1.5144
 1088SOL    HW2 3264   2.017   3.915   0.250  1.4750 -0.3915  5.7878
 1089SOL     OW 3265   2.697   4.082   1.327 -0.6562  0.1059 -1.0925
 1089SOL    HW1 3266   2.729   4.082   1.417  0.0600 -0.1996 -1.3332
 1089SOL    HW2 3267   2.610   4.042   1.332 -2.0275  2.9918 -0.1129
 1090SOL     OW 3268   2.066   4.211   0.838  0.1298 -0.4171  0.3334
 1090SOL    HW1 3269   2.104   4.171   0.760 -0.1824 -1.1950  0.5810
 1090SOL    HW2 3270   1.972   4.212   0.822 -0.0450 -1.5765  1.1435
 1091SOL     OW 3271   3.908   1.046   2.985  0.0463 -0.2303 -0.5062
 1091SOL    HW1 3272   3.821   1.084   2.971 -0.0642  0.0460  0.8056
 1091SOL    HW2 3273   3.893   0.952   2.985 -0.7068 -0.1833  2.0850
 1092SOL     OW 3274   2.950   1.315   0.684  0.0598 -0.4876  0.1446
 1092SOL    HW1 3275   2.963   1.232   0.730 -1.1133 -0.2138  0.9971
 1092SOL    HW2 3276   3.038   1.339   0.654  0.6072 -1.4324  0.9253
 1093SOL     OW 3277   0.473   4.217   1.558 -0.0084  0.4803 -0.0628
 1093SOL    HW1 3278   0.401   4.168   1.519 -0.8834  1.5757  0.1322
 1093SOL    HW2 3279   0.485   4.177   1.644  1.2957 -1.3212 -1.0051
 1094SOL     OW 3280   0.830   1.018   2.520 -0.3140  0.2664 -0.2346
 1094SOL    HW1 3281   0.911   1.059   2.490  0.0394 -0.5250 -0.3720
 1094SOL    HW2 3282   0.857   0.958   2.588 -0.7457 -0.2693 -0.5298
 1095SOL     OW 3283   3.649   0.606   1.333 -0.3743 -0.5332 -0.1684
 1095SOL    HW1 3284   3.716   0.607   1.402  0.2935  2.8661 -0.6594
 1095SOL    HW2 3285   3.685   0.549   1.265  0.9782 -0.5498  0.5266
 1096SOL     OW 3286   4.188   2.056   0.210  0.4632  0.1463 -0.0585
 1096SOL    HW1 3287   4.189   2.152   0.203 -1.5721  0.2386  0.4284
 1096SOL    HW2 3288   4.103   2.036   0.247 -0.0716 -2.0047 -2.2366
 1097SOL     OW 3289   1.866   0.447   3.730 -0.0013  0.2581 -0.4714
 1097SOL    HW1 3290   1.857   0.526   3.784 -1.5163 -0.3698  0.2617
 1097SOL    HW2 3291   1.900   0.479   3.647  1.1763  1.4269  0.4065
 1098SOL     OW 3292   3.640   3.143   0.094  0.7322 -0.2539  0.0288
 1098SOL    HW1 3293   3.718   3.165   0.044  0.5717 -0.9651 -0.5580
 1098SOL    HW2 3294   3.644   3.047   0.103  0.1995 -0.2412  0.4457
 1099SOL     OW 3295   2.761   3.401   2.513 -0.3808 -0.1920 -0.0277
 1099SOL    HW1 3296   2.845   3.436   2.483 -0.6971  0.7497  0.1459
 1099SOL    HW2 3297   2.741   3.330   2.451  0.0229  0.2845 -0.7153
 1100SOL     OW 3298   1.693   3.181   3.150 -0.0669 -0.0832  0.1874
 1100SOL    HW1 3299   1.766   3.232   3.114  1.4495 -0.8461  2.0471
 1100SOL    HW2 3300   1.711   3.091   3.123 -1.0611 -0.1150 -0.4366
 1101SOL     OW 3301   3.880   1.167   1.538 -0.5241  0.6623 -0.7981
 1101SOL    HW1 3302   3.924   1.082   1.530  2.2658  1.6325  2.0705
 1101SOL    HW2 3303   3.805   1.149   1.596  0.2304  0.1935  0.0547
 1102SOL     OW 3304   2.332   0.891   3.721  0.3315  0.0037  0.2308
 1102SOL    HW1 3305   2.269   0.910   3.651  0.5325 -0.8171 -0.1912
 1102SOL    HW2 3306   2.286   0.828   3.777  0.6486 -0.3279  0.1172
 1103SOL     OW 3307   2.698   0.369   2.872 -0.2416 -0.0078 -0.1247
 1103SOL    HW1 3308   2.604   0.356   2.871 -0.1430 -0.7290 -0.2270
 1103SOL    HW2 3309   2.734   0.289   2.910  0.3084  0.4105  0.2635
 1104SOL     OW 3310   1.626   1.992   3.747 -0.0334  0.4214 -0.4521
 1104SOL    HW1 3311   1.702   1.936   3.760 -1.4601 -1.1591  1.8904
 1104SOL    HW2 3312   1.630   2.055   3.818 -0.8322  0.3719 -0.3459
 1105SOL     OW 3313   3.437   1.719   1.985 -0.2690  0.1602 -0.0908
 1105SOL    HW1 3314   3.432   1.814   1.996  0.4648  0.2399 -0.4103
 1105SOL    HW2 3315   3.445   1.706   1.890  1.2421 -0.1340  0.0571
 1106SOL     OW 3316   0.877   4.090   0.755  0.0929  0.5661 -0.5241
 1106SOL    HW1 3317   0.972   4.085   0.760  0.2599  3.2102  1.1147
 1106SOL    HW2 3318   0.846   4.032   0.825  0.7610  2.7448  1.7222
 1107SOL     OW 3319   3.355   4.178   4.198 -0.6316  0.1974  0.1976
 1107SOL    HW1 3320   3.395   4.188   4.111 -0.0573 -0.6557  0.3525
 1107SOL    HW2 3321   3.428   4.186   4.259 -0.3279 -3.0363  0.4251
 1108SOL     OW 3322   3.124   1.787   2.260  0.2427 -0.1830 -0.2025
 1108SOL    HW1 3323   3.162   1.834   2.186  1.3046 -0.9383 -0.1574
 1108SOL    HW2 3324   3.138   1.845   2.335 -1.6581  1.0077 -0.6888
 1109SOL     OW 3325   2.627   2.021   0.354 -0.0761  0.0061  0.3468
 1109SOL    HW1 3326   2.610   2.111   0.325 -4.9634 -1.4252 -2.2849
 1109SOL    HW2 3327   2.588   2.015   0.441 -0.7578  0.2116  0.0620
 1110SOL     OW 3328   2.508   0.630   2.414 -0.1077  0.2551 -0.6107
 1110SOL    HW1 3329   2.412   0.622   2.416  0.0514 -1.9758  0.7926
 1110SOL    HW2 3330   2.537   0.594   2.497  1.9449  2.0917 -0.4289
 1111SOL     OW 3331   4.337   0.232   0.015  0.6844  0.6815  0.1610
 1111SOL    HW1 3332   4.253   0.208   0.053  1.2147 -1.9303 -0.0860
 1111SOL    HW2 3333   4.377   0.291   0.079 -0.9270  1.2336  0.6953
 1112SOL     OW 3334   1.043   1.962   1.235 -0.3356 -0.1104  0.4534
 1112SOL    HW1 3335   1.045   1.949   1.140 -0.7029 -0.8123  0.5361
 1112SOL    HW2 3336   1.070   1.878   1.271  3.1278  1.0533  0.9415
 1113SOL     OW 3337   2.660   0.506   3.943  0.4062  0.6549  0.0745
 1113SOL    HW1 3338   2.634   0.451   4.016 -1.1519 -0.5383 -1.3155
 1113SOL    HW2 3339   2.754   0.491   3.934  0.4882  0.2921  1.3764
 1114SOL     OW 3340   4.317   1.024   1.257 -0.0494 -0.1641 -0.2425
 1114SOL    HW1 3341   4.339   1.117   1.265  0.1735 -0.0311 -2.1405
 1114SOL    HW2 3342   4.266   1.005   1.336  1.4834  1.0808  1.1306
 1115SOL     OW 3343   2.319   2.703   3.914 -0.6401  0.3328 -0.5039
 1115SOL    HW1 3344   2.250   2.759   3.951 -1.1144 -0.4507 -0.1836
 1115SOL    HW2 3345   2.367   2.761   3.854 -0.4652  1.3619  0.5947
 1116SOL     OW 3346   4.273   4.036   0.229  0.0182  0.3050 -0.2000
 1116SOL    HW1 3347   4.252   4.007   0.318  1.7715 -0.5008 -0.0094
 1116SOL    HW2 3348   4.191   4.072   0.196 -1.1014 -0.8676  1.1556
 1117SOL     OW 3349   1.086   3.442   0.096 -0.5650  0.5208 -0.1196
 1117SOL    HW1 3350   1.161   3.499   0.114 -0.0956  0.0843 -0.6659
 1117SOL    HW2 3351   1.105   3.403   0.011 -0.2091 -1.4986  0.8413
 1118SOL     OW 3352   0.692   3.061   0.037  0.8483  0.2653  0.4916
 1118SOL    HW1 3353   0.713   2.973   0.068  1.2954  0.8150  1.8080
 1118SOL    HW2 3354   0.751   3.076  -0.037  2.1521  0.1815  1.4799
 1119SOL     OW 3355   4.153   3.926   3.965 -0.5561 -0.2927  0.1388
 1119SOL    HW1 3356   4.111   3.923   3.879 -0.7819 -1.5337  0.2732
 1119SOL    HW2 3357   4.116   4.004   4.007 -0.5440  0.2502 -0.8281
 1120SOL     OW 3358   3.519   3.340   1.261 -0.5538 -0.0786  0.4489
 1120SOL    HW1 3359   3.455   3.332   1.331 -0.1282  1.2168  1.0196
 1120SOL    HW2 3360   3.476   3.393   1.194 -0.5174 -0.2496  0.2888
 1121SOL     OW 3361   2.678   2.782   4.367  0.3591  0.0900 -0.3726
 1121SOL    HW1 3362   2.743   2.832   4.319  0.0146 -0.4105 -1.3963
 1121SOL    HW2 3363   2.725   2.705   4.400  0.1802 -0.6112 -1.6703
 1122SOL     OW 3364   2.052   2.076   3.208 -0.5933 -0.2556 -0.2340
 1122SOL    HW1 3365   2.141   2.111   3.203 -0.2079 -1.2503 -0.5053
 1122SOL    HW2 3366   1.998   2.144   3.169 -0.0392  0.6385  0.5027
 1123SOL     OW 3367   0.653   0.402   3.020 -0.8178 -0.5322 -0.2280
 1123SOL    HW1 3368   0.663   0.459   3.097 -0.0531  1.0559 -1.4276
 1123SOL    HW2 3369   0.567   0.424   2.986 -0.6160 -0.2495 -0.5623
 1124SOL     OW 3370   1.417   1.083   3.335 -0.0704 -0.0148  0.3617
 1124SOL    HW1 3371   1.328   1.061   3.363  0.4770 -1.4362  1.1125
 1124SOL    HW2 3372   1.411   1.172   3.301 -1.6572  0.1207  0.9366
 1125SOL     OW 3373   0.652   4.466   1.011 -0.5532 -0.5364  0.6393
 1125SOL    HW1 3374   0.748   4.469   1.008 -0.5141  0.4346  2.2383
 1125SOL    HW2 3375   0.629   4.395   0.950  1.1179 -0.1677 -0.4943
 1126SOL     OW 3376   3.238   3.129   1.062 -0.3267  0.0498  0.4518
 1126SOL    HW1 3377   3.232   3.163   1.152  0.6200  1.9423 -0.1537
 1126SOL    HW2 3378   3.169   3.063   1.057 -1.1264  0.6887  2.2344
 1127SOL     OW 3379   3.196   1.276   3.336 -0.2037 -0.1765  0.1175
 1127SOL    HW1 3380   3.145   1.248   3.260 -1.1092  1.1387  0.2032
 1127SOL    HW2 3381   3.170   1.367   3.351 -0.2540 -0.4674  2.1666
 1128SOL     OW 3382   1.947   2.839   2.527 -0.2532 -0.7465 -0.0372
 1128SOL    HW1 3383   1.933   2.864   2.618  0.3408  1.1452 -0.4321
 1128SOL    HW2 3384   1.898   2.903   2.476 -0.8787 -2.0006 -1.0634
 1129SOL     OW 3385   2.530   0.741   1.704 -0.4870 -0.0036 -1.0547
 1129SOL    HW1 3386   2.586   0.663   1.698 -0.8109 -0.1858 -1.8750
 1129SOL    HW2 3387   2.568   0.793   1.775  0.6852 -0.1466 -1.5698
 1130SOL     OW 3388   3.768   2.828   4.316  0.3318  0.2498  0.0929
 1130SOL    HW1 3389   3.791   2.795   4.403 -1.3856 -1.1148  0.0892
 1130SOL    HW2 3390   3.741   2.750   4.267 -1.4954  1.3260 -0.7260
 1131SOL     OW 3391   3.644   3.496   2.208 -0.0979  0.6833  0.1808
 1131SOL    HW1 3392   3.719   3.466   2.260 -1.4977 -0.4354  1.6817
 1131SOL    HW2 3393   3.623   3.422   2.151  0.1928  1.1461 -0.5261
 1132SOL     OW 3394   0.742   4.335  -0.014 -0.0362 -0.3323 -0.1649
 1132SOL    HW1 3395   0.738   4.320   0.080  0.5765  1.2979  0.1468
 1132SOL    HW2 3396   0.818   4.393  -0.026 -1.3286  1.1935 -1.4004
 1133SOL     OW 3397   1.115   3.039   2.785  0.4827 -0.5457 -0.3045
 1133SOL    HW1 3398   1.094   3.069   2.696 -0.1147 -0.1470 -0.0383
 1133SOL    HW2 3399   1.134   3.120   2.833 -0.8723 -0.6034  0.3573
 1134SOL     OW 3400   4.162   2.654   4.101 -0.0509  0.4550 -0.6810
 1134SOL    HW1 3401   4.098   2.623   4.038  2.1842 -0.7233 -2.5443
 1134SOL    HW2 3402   4.237   2.681   4.047  1.1378  1.4788  1.3764
 1135SOL     OW 3403   3.399   4.382   3.067  0.3136  0.1372 -0.7257
 1135SOL    HW1 3404   3.321   4.364   3.013 -0.4557 -0.7586  0.6300
 1135SOL    HW2 3405   3.468   4.401   3.003 -0.9014  0.5414 -1.9828
 1136SOL     OW 3406   1.399   3.071   4.456  0.1415  0.4145 -0.3392
 1136SOL    HW1 3407   1.431   2.983   4.437 -1.2632  0.1729 -1.7539
 1136SOL    HW2 3408   1.478   3.126   4.451  0.6802 -0.4386 -1.7005
 1137SOL     OW 3409   3.129   0.271   0.344 -0.2425  0.0536  0.6362
 1137SOL    HW1 3410   3.074   0.346   0.366 -1.1531 -0.0646 -1.0964
 1137SOL    HW2 3411   3.086   0.231   0.269  2.9679  0.8319 -1.8188
 1138SOL     OW 3412   2.446   3.463   4.085 -0.0192 -0.0711 -0.4568
 1138SOL    HW1 3413   2.466   3.377   4.047 -1.3541 -1.1804  1.2169
 1138SOL    HW2 3414   2.390   3.444   4.160 -0.5913  2.3093 -0.2025
 1139SOL     OW 3415   1.777   3.095   1.573  0.1794  0.1349 -0.5052
 1139SOL    HW1 3416   1.682   3.092   1.578  0.2532 -0.3527  1.0182
 1139SOL    HW2 3417   1.804   3.141   1.652  1.2988 -1.9722  0.4171
 1140SOL     OW 3418   3.355   0.355   3.521  0.2929 -0.2132  0.3048
 1140SOL    HW1 3419   3.283   0.386   3.576  1.3538  0.9172  1.1109
 1140SOL    HW2 3420   3.422   0.326   3.583 -0.0332 -2.7450 -0.4267
 1141SOL     OW 3421   0.781   3.402   1.951  0.5126  0.0625  0.5898
 1141SOL    HW1 3422   0.854   3.462   1.970  1.6968 -1.1393  0.0081
 1141SOL    HW2 3423   0.807   3.320   1.993  0.2327 -0.8305 -0.9305
 1142SOL     OW 3424   1.826   3.192   3.457 -0.0249 -0.6367 -0.5328
 1142SOL    HW1 3425   1.797   3.245   3.382 -0.6478  0.4964  0.4736
 1142SOL    HW2 3426   1.797   3.242   3.534  0.2681 -1.9664  0.4653
 1143SOL     OW 3427   3.602   3.752   3.931 -0.0133  0.6858  0.3705
 1143SOL    HW1 3428   3.629   3.822   3.991 -0.1738  1.2393 -0.1957
 1143SOL    HW2 3429   3.640   3.672   3.970 -0.1860  1.0156  1.2481
 1144SOL     OW 3430   1.656   4.382   2.829  0.2544  0.4658 -0.1327
 1144SOL    HW1 3431   1.741   4.401   2.868  0.5023  3.3662 -1.7893
 1144SOL    HW2 3432   1.643   4.452   2.765 -2.1128 -1.4883 -1.9930
 1145SOL     OW 3433   3.908   3.547   0.733  0.1618 -0.4808 -0.2195
 1145SOL    HW1 3434   3.824   3.519   0.697 -0.6643  0.5834  0.8266
 1145SOL    HW2 3435   3.973   3.502   0.679 -1.0508 -0.3522 -1.8643
 1146SOL     OW 3436   3.287   2.232   1.503  0.1529  0.4615  0.0283
 1146SOL    HW1 3437   3.295   2.327   1.515  2.5232  0.3751 -0.4467
 1146SOL    HW2 3438   3.300   2.218   1.409 -1.5436 -0.2467 -0.1295
 1147SOL     OW 3439   2.172   0.127   3.613  0.2281  0.6514  0.2909
 1147SOL    HW1 3440   2.144   0.179   3.538 -1.4742  0.3591  0.7009
 1147SOL    HW2 3441   2.253   0.085   3.584  0.4838  1.8409 -0.7842
 1148SOL     OW 3442   3.599   4.048   3.672 -0.1854  0.0907  0.0230
 1148SOL    HW1 3443   3.570   4.137   3.650 -1.5118 -0.0992  0.8749
 1148SOL    HW2 3444   3.681   4.036   3.624 -0.3041  1.5538 -0.5748
 1149SOL     OW 3445   0.488   3.801   0.704 -0.3525 -0.3255  0.0051
 1149SOL    HW1 3446   0.498   3.834   0.615 -0.4899 -0.8180 -0.1942
 1149SOL    HW2 3447   0.562   3.741   0.716  0.4355  0.7334  0.6878
 1150SOL     OW 3448   0.554   2.503   0.626 -0.6069  0.2954  0.0035
 1150SOL    HW1 3449   0.494   2.572   0.656  1.0615  1.8078  0.0619
 1150SOL    HW2 3450   0.596   2.471   0.706 -2.0854 -1.5543  0.0885
 1151SOL     OW 3451   1.124   3.329   4.340  0.0410  0.0916  0.4790
 1151SOL    HW1 3452   1.137   3.360   4.250  1.4991  1.4961  1.1067
 1151SOL    HW2 3453   1.182   3.253   4.347 -0.7864 -0.5960 -0.0258
 1152SOL     OW 3454   4.374   3.739   1.920 -0.3245  0.0361 -0.1774
 1152SOL    HW1 3455   4.441   3.720   1.985  0.1302 -2.4494 -1.2612
 1152SOL    HW2 3456   4.291   3.723   1.966 -0.1154  0.6327  0.4297
 1153SOL     OW 3457   1.719   4.332   3.474 -0.0617 -0.2578 -0.3795
 1153SOL    HW1 3458   1.794   4.382   3.508 -1.2439  1.2947  0.0291
 1153SOL    HW2 3459   1.643   4.369   3.518 -1.0069 -2.6507  0.1737
 1154SOL     OW 3460   4.112   3.011   3.298 -0.1430  0.7979 -0.2435
 1154SOL    HW1 3461   4.142   2.924   3.321  1.5303  1.0758 -1.2299
 1154SOL    HW2 3462   4.029   2.997   3.252  0.1744 -0.2773 -0.5053
 1155SOL     OW 3463   4.053   4.186   1.347 -0.2428 -0.1225  0.3114
 1155SOL    HW1 3464   3.999   4.144   1.414 -0.1782 -0.7851 -0.0526
 1155SOL    HW2 3465   4.047   4.129   1.271 -0.8428  0.9537 -0.4838
 1156SOL     OW 3466   2.419   1.977   2.629 -0.0156  0.5752 -0.5808
 1156SOL    HW1 3467   2.379   1.895   2.659 -0.8576  0.8424 -0.9337
 1156SOL    HW2 3468   2.501   1.983   2.678  0.0551 -0.4734 -0.5530
 1157SOL     OW 3469   3.314   0.100   4.482 -0.2874 -0.0357 -0.7786
 1157SOL    HW1 3470   3.305   0.161   4.408  0.9088  3.4275  1.6897
 1157SOL    HW2 3471   3.237   0.115   4.535  0.3822 -0.1232  0.2468
 1158SOL     OW 3472   1.240   4.292   0.846  0.0548 -0.3742 -0.4249
 1158SOL    HW1 3473   1.221   4.263   0.756 -1.4220 -0.4350 -0.1179
 1158SOL    HW2 3474   1.171   4.355   0.866  0.3818 -0.3390  0.6695
 1159SOL     OW 3475   1.678   1.648   3.991 -0.3172 -0.1252 -0.0411
 1159SOL    HW1 3476   1.586   1.622   3.992  0.2913 -2.4881  0.2080
 1159SOL    HW2 3477   1.711   1.625   4.078  0.3801  1.3034  0.1002
 1160SOL     OW 3478   2.839   0.735   2.172  0.2816  0.3192 -0.5829
 1160SOL    HW1 3479   2.794   0.658   2.204 -0.4270  0.7792 -0.4576
 1160SOL    HW2 3480   2.848   0.721   2.077  0.9857 -0.3284 -0.4294
 1161SOL     OW 3481   4.355   3.929   4.348 -0.2030  0.5555  0.8005
 1161SOL    HW1 3482   4.388   3.886   4.269  0.4488  2.6438 -0.1345
 1161SOL    HW2 3483   4.432   3.939   4.404 -0.5465 -0.3544  1.4659
 1162SOL     OW 3484   1.534   4.385   1.963  0.2300 -0.1034 -0.4549
 1162SOL    HW1 3485   1.572   4.297   1.969  1.5838  0.4630 -0.4702
 1162SOL    HW2 3486   1.542   4.420   2.052  2.3670  1.0465 -1.0238
 1163SOL     OW 3487   0.432   3.618   0.978  0.0887 -0.2873 -0.4199
 1163SOL    HW1 3488   0.511   3.564   0.970  1.0787  0.7193  1.7560
 1163SOL    HW2 3489   0.387   3.607   0.895  1.9186 -1.8406 -1.2806
 1164SOL     OW 3490   2.342   1.768   0.547  0.0911 -0.0041  0.9521
 1164SOL    HW1 3491   2.283   1.707   0.502  0.8661 -0.6024  0.7259
 1164SOL    HW2 3492   2.287   1.812   0.611 -0.7435 -0.0956  0.3110
 1165SOL     OW 3493   1.795   4.337   4.185  0.3221 -0.1847 -0.4227
 1165SOL    HW1 3494   1.777   4.406   4.120 -1.9414 -0.0901  0.2206
 1165SOL    HW2 3495   1.890   4.326   4.183  0.4054  0.3209 -3.2284
 1166SOL     OW 3496   1.770   4.044   2.824 -0.4557  0.2287  0.6987
 1166SOL    HW1 3497   1.682   4.082   2.819 -0.0827  1.0098 -0.0804
 1166SOL    HW2 3498   1.828   4.118   2.840  0.2322 -0.0645 -0.3639
 1167SOL     OW 3499   3.747   1.376   0.649  0.1715 -0.1467  0.1558
 1167SOL    HW1 3500   3.734   1.300   0.593  2.2075 -0.1439 -0.3843
 1167SOL    HW2 3501   3.766   1.340   0.735  0.2670 -0.2160  0.1052
 1168SOL     OW 3502   1.138   1.777   2.850 -0.5491  0.3659 -0.4624
 1168SOL    HW1 3503   1.158   1.869   2.831  1.0627  0.6565  2.1498
 1168SOL    HW2 3504   1.078   1.780   2.924 -0.2513 -0.6954 -0.1641
 1169SOL     OW 3505   2.773   2.734   2.342  0.2532  0.2446  0.1062
 1169SOL    HW1 3506   2.786   2.777   2.426  0.7923 -2.8854  1.8038
 1169SOL    HW2 3507   2.858   2.737   2.300  0.8581 -0.8461  1.1597
 1170SOL     OW 3508   2.446   3.914   2.273 -0.1076 -0.1712 -0.2235
 1170SOL    HW1 3509   2.534   3.923   2.237 -0.2957  0.2443 -0.5911
 1170SOL    HW2 3510   2.420   4.004   2.295 -0.8482 -0.1558 -1.1099
 1171SOL     OW 3511   1.412   2.006   3.563 -0.4367 -0.0950 -0.5984
 1171SOL    HW1 3512   1.437   1.975   3.651 -0.2643  0.0117 -0.6081
 1171SOL    HW2 3513   1.437   2.098   3.563  0.2132 -0.2597 -0.9995
 1172SOL     OW 3514   2.271   4.118   1.713 -0.0191  0.2764  0.1110
 1172SOL    HW1 3515   2.348   4.168   1.685 -0.3539  0.8105  0.1135
 1172SOL    HW2 3516   2.295   4.027   1.700  0.4659  0.4531 -0.2692
 1173SOL     OW 3517   1.279   3.220   2.173  0.0784  0.4619  0.1898
 1173SOL    HW1 3518   1.341   3.285   2.139 -0.0508  0.6247  0.2590
 1173SOL    HW2 3519   1.266   3.246   2.265  0.4739 -0.0125  0.3804
 1174SOL     OW 3520   1.509   1.494   1.986 -0.4913 -0.3193 -0.2035
 1174SOL    HW1 3521   1.586   1.503   2.043 -1.6930 -2.1609  1.8386
 1174SOL    HW2 3522   1.546   1.483   1.898  1.5385 -0.2113  0.5856
 1175SOL     OW 3523   1.271   0.063   2.613  0.2561  0.0880  0.6675
 1175SOL    HW1 3524   1.307   0.106   2.690 -0.2477 -0.4610  1.2287
 1175SOL    HW2 3525   1.253   0.133   2.552 -3.1987  1.1233  2.6021
 1176SOL     OW 3526   0.211   4.188   3.355  0.0745  0.2211 -0.4346
 1176SOL    HW1 3527   0.174   4.263   3.310 -0.8808  0.5893  0.9065
 1176SOL    HW2 3528   0.272   4.149   3.292  1.5017  2.8025 -0.7632
 1177SOL     OW 3529   0.885   0.780   3.242 -0.1607 -0.0667 -0.7395
 1177SOL    HW1 3530   0.843   0.863   3.218  0.0018  0.3177  0.2545
 1177SOL    HW2 3531   0.978   0.795   3.226  0.0184  0.3930  0.6228
 1178SOL     OW 3532   2.281   4.305   0.439  0.6115  0.1660 -0.3714
 1178SOL    HW1 3533   2.318   4.347   0.362  1.3499  0.7171  0.2671
 1178SOL    HW2 3534   2.357   4.283   0.493  0.0508  1.0937  0.8523
 1179SOL     OW 3535   0.724   0.063   2.733 -0.0223 -0.5785 -0.6308
 1179SOL    HW1 3536   0.763   0.035   2.651 -0.2330 -0.2579 -0.8432
 1179SOL    HW2 3537   0.797   0.098   2.785 -0.1269  0.8005 -1.3530
 1180SOL     OW 3538   3.151   4.106   2.765  0.0723  0.2222 -0.2371
 1180SOL    HW1 3539   3.083   4.046   2.796 -0.9745  0.5255 -1.8485
 1180SOL    HW2 3540   3.135   4.114   2.671  1.3079  1.6348 -0.3631
 1181SOL     OW 3541   2.298   3.819   4.339 -0.4190  0.2513 -0.0934
 1181SOL    HW1 3542   2.281   3.774   4.421 -0.2353  0.2647 -0.0486
 1181SOL    HW2 3543   2.389   3.847   4.345 -0.4114  0.2716 -0.2926
 1182SOL     OW 3544   1.480   1.518   2.720  0.2610 -0.0720  0.0529
 1182SOL    HW1 3545   1.565   1.524   2.763  1.2603 -0.3493 -1.7962
 1182SOL    HW2 3546   1.417   1.546   2.787  1.9269  1.5958  1.0043
 1183SOL     OW 3547   1.027   0.166   1.702 -0.0379 -0.5965  0.1299
 1183SOL    HW1 3548   1.019   0.194   1.794 -0.7955  1.2349 -0.4473
 1183SOL    HW2 3549   0.937   0.153   1.673  0.2247 -1.7972 -0.2103
 1184SOL     OW 3550   3.172   3.941   4.453 -0.0807  0.0661  0.3062
 1184SOL    HW1 3551   3.153   3.988   4.372 -2.3616  1.2862  1.4321
 1184SOL    HW2 3552   3.097   3.882   4.465  1.3531 -1.8202  0.3878
 1185SOL     OW 3553   2.760   2.468   2.317  0.5014  0.3148 -0.1623
 1185SOL    HW1 3554   2.787   2.557   2.339 -0.6244  1.1176 -1.7954
 1185SOL    HW2 3555   2.719   2.476   2.231 -0.0119 -1.7279 -0.1667
 1186SOL     OW 3556   2.495   1.302   0.876  0.0175 -0.2443  0.3760
 1186SOL    HW1 3557   2.521   1.210   0.873  1.4096  0.1532 -1.3294
 1186SOL    HW2 3558   2.576   1.349   0.895 -0.4408  0.7057  0.0427
 1187SOL     OW 3559   0.500   0.787   1.598  0.1038  0.6648  0.3800
 1187SOL    HW1 3560   0.518   0.881   1.592  0.8388  0.7489  2.8436
 1187SOL    HW2 3561   0.413   0.781   1.637 -0.1772  0.3024 -0.2883
 1188SOL     OW 3562   3.246   1.699   0.144 -0.2490 -0.0234 -0.2374
 1188SOL    HW1 3563   3.219   1.676   0.055 -1.4352 -1.5102  0.4563
 1188SOL    HW2 3564   3.337   1.727   0.135 -0.4066  0.0704 -1.9345
 1189SOL     OW 3565   2.252   1.623   2.379 -0.2797 -0.0378  0.0482
 1189SOL    HW1 3566   2.196   1.700   2.371 -2.1211 -1.0701  2.0971
 1189SOL    HW2 3567   2.201   1.551   2.341  0.5466 -0.6383  0.0370
 1190SOL     OW 3568   0.943   4.110   2.873 -0.4098  0.2490  0.0795
 1190SOL    HW1 3569   0.854   4.144   2.862 -2.0369 -3.1649  1.2354
 1190SOL    HW2 3570   0.943   4.028   2.822  2.0696  0.1276  0.1858
 1191SOL     OW 3571   0.324   0.643   0.033  0.6297 -0.8888 -0.2564
 1191SOL    HW1 3572   0.294   0.699   0.105 -0.8908 -1.0442 -0.7279
 1191SOL    HW2 3573   0.324   0.555   0.069 -0.1798 -0.9726 -0.4479
 1192SOL     OW 3574   1.443   4.205   3.129  0.0760  0.3676  0.0317
 1192SOL    HW1 3575   1.536   4.180   3.136  0.2045  0.8366  0.0465
 1192SOL    HW2 3576   1.442   4.273   3.062  0.0137  1.6459  1.2869
 1193SOL     OW 3577   2.115   3.107   2.349  0.2785  0.3129 -0.2007
 1193SOL    HW1 3578   2.064   3.143   2.421 -1.7058 -0.3028 -1.2160
 1193SOL    HW2 3579   2.206   3.118   2.375 -0.3740  0.8293  2.0117
 1194SOL     OW 3580   2.792   0.950   1.187  0.0478 -0.7462  0.3084
 1194SOL    HW1 3581   2.816   0.928   1.277  1.5921 -2.2888 -0.4217
 1194SOL    HW2 3582   2.697   0.961   1.189  0.2001  0.6130  2.3741
 1195SOL     OW 3583   2.144   1.525   3.043  0.4702 -0.1788  0.3512
 1195SOL    HW1 3584   2.085   1.472   3.097 -1.9731  0.3636 -1.6054
 1195SOL    HW2 3585   2.171   1.466   2.973 -1.2191  0.6625 -1.1033
 1196SOL     OW 3586   1.686   3.518   2.200  0.0700 -0.3793  0.0313
 1196SOL    HW1 3587   1.657   3.430   2.226 -1.5480 -0.5208 -2.0172
 1196SOL    HW2 3588   1.780   3.509   2.187 -0.1259 -1.9393 -0.5873
 1197SOL     OW 3589   3.574   1.106   0.282 -0.1765  0.0763 -0.2948
 1197SOL    HW1 3590   3.539   1.017   0.283  0.9733 -0.3920  0.3250
 1197SOL    HW2 3591   3.643   1.106   0.348 -0.3866  1.5373 -0.0363
 1198SOL     OW 3592   3.536   4.119   2.102 -0.6413  0.4796  0.3643
 1198SOL    HW1 3593   3.583   4.044   2.066 -1.4574 -1.0029  2.2073
 1198SOL    HW2 3594   3.551   4.113   2.196 -1.7216  1.9545  0.6621
 1199SOL     OW 3595   0.433   3.175   2.296  0.4738 -0.9036 -0.2097
 1199SOL    HW1 3596   0.395   3.094   2.262  0.5370  0.2537 -3.3575
 1199SOL    HW2 3597   0.478   3.214   2.221 -0.0129  2.3134  1.0105
 1200SOL     OW 3598   4.495   2.422   3.842 -0.6621  0.0744  0.6003
 1200SOL    HW1 3599   4.410   2.380   3.826 -0.6205  0.4330 -0.7614
 1200SOL    HW2 3600   4.474   2.499   3.894 -0.9548 -0.6948  1.6577
 1201SOL     OW 3601   3.226   2.515   1.045 -0.5080 -0.2732 -0.4601
 1201SOL    HW1 3602   3.246   2.522   0.952 -0.8707 -0.8513 -0.5889
 1201SOL    HW2 3603   3.150   2.456   1.049 -1.4993  1.0012  0.0852
 1202SOL     OW 3604   4.281   4.435   3.897 -0.1774  0.2365  0.8757
 1202SOL    HW1 3605   4.233   4.481   3.827 -2.2961  0.4141  2.3498
 1202SOL    HW2 3606   4.249   4.345   3.893  1.2793 -0.2700  0.2929
 1203SOL     OW 3607   2.214   0.952   2.204  0.3470 -0.1919  0.2902
 1203SOL    HW1 3608   2.238   0.942   2.296 -2.8599 -0.5646  1.2239
 1203SOL    HW2 3609   2.214   1.047   2.189  0.9877 -0.1335  0.6300
 1204SOL     OW 3610   2.075   3.268   4.265  0.4470  0.4792 -0.5782
 1204SOL    HW1 3611   2.071   3.291   4.172 -2.0664 -0.2626 -0.7432
 1204SOL    HW2 3612   1.999   3.210   4.278  0.3944  1.0316  2.0471
 1205SOL     OW 3613   4.471   0.233   3.637 -0.4487 -0.1780  0.2928
 1205SOL    HW1 3614   4.407   0.225   3.707 -1.0855 -2.2369 -0.4572
 1205SOL    HW2 3615   4.515   0.148   3.633  1.3235  0.6867 -0.2030
 1206SOL     OW 3616   0.244   1.346   1.137  0.4091 -0.3734  0.0729
 1206SOL    HW1 3617   0.259   1.302   1.221  1.7044  3.2920  1.9785
 1206SOL    HW2 3618   0.324   1.329   1.086 -0.1356 -2.1292 -0.2492
 1207SOL     OW 3619   3.535   3.304   3.243 -0.6202  0.4890 -0.1144
 1207SOL    HW1 3620   3.495   3.251   3.174 -1.3984  0.5441  0.2876
 1207SOL    HW2 3621   3.572   3.379   3.196  1.4455 -0.8930 -0.8341
 1208SOL     OW 3622   1.380   3.109   3.832  0.0911  0.0147 -0.3376
 1208SOL    HW1 3623   1.382   3.091   3.738  1.2092  0.0555 -0.3280
 1208SOL    HW2 3624   1.451   3.056   3.869 -0.9940 -0.8106  0.6405
 1209SOL     OW 3625   0.479   2.760   3.909  0.0417 -0.2243  0.3127
 1209SOL    HW1 3626   0.455   2.709   3.987 -2.3147  3.0016  1.9032
 1209SOL    HW2 3627   0.395   2.791   3.874  1.0952 -0.7256 -3.0596
 1210SOL     OW 3628   3.233   3.995   1.829  0.0765 -0.1623  0.2112
 1210SOL    HW1 3629   3.175   3.955   1.766  1.2058 -0.4560 -0.6766
 1210SOL    HW2 3630   3.247   4.084   1.796  1.0029 -0.4499 -0.2154
 1211SOL     OW 3631   2.063   2.547   3.869  0.5295  0.0789  0.2845
 1211SOL    HW1 3632   2.131   2.597   3.915  1.0431 -1.1578  0.9267
 1211SOL    HW2 3633   2.004   2.614   3.833  3.1397  1.3407 -2.0546
 1212SOL     OW 3634   4.133   0.507   4.086 -0.0956  0.1449  0.1937
 1212SOL    HW1 3635   4.151   0.597   4.057  0.6505 -0.6758 -2.0687
 1212SOL    HW2 3636   4.205   0.486   4.144 -1.1383  1.5218  2.1050
 1213SOL     OW 3637   0.262   4.233   3.619  0.0883 -0.3174 -0.0669
 1213SOL    HW1 3638   0.193   4.188   3.668 -1.6194  1.3416 -0.8344
 1213SOL    HW2 3639   0.240   4.218   3.527  0.9075  0.0111 -0.3261
 1214SOL     OW 3640   0.188   3.137   3.871 -0.0457  0.1161 -0.2793
 1214SOL    HW1 3641   0.103   3.173   3.895  0.0261 -0.7593  1.5022
 1214SOL    HW2 3642   0.183   3.121   3.777 -2.1118 -0.5628 -0.0896
 1215SOL     OW 3643   0.736   2.854   0.227  0.3095  0.2822  0.2464
 1215SOL    HW1 3644   0.651   2.816   0.248 -0.8815  0.9144 -2.9342
 1215SOL    HW2 3645   0.789   2.780   0.197  0.0228  0.2746 -0.2308
 1216SOL     OW 3646   1.492   3.058   0.950  0.2641  0.6321  0.0236
 1216SOL    HW1 3647   1.541   2.984   0.914  0.0735 -0.1793  1.3962
 1216SOL    HW2 3648   1.497   3.047   1.045 -2.0231  0.8670  0.2296
 1217SOL     OW 3649   2.581   1.995   3.818  0.2486 -0.6721 -0.4223
 1217SOL    HW1 3650   2.511   1.941   3.853  0.7261 -1.2705 -0.3653
 1217SOL    HW2 3651   2.625   1.939   3.753  1.2545 -0.6512  0.2160
 1218SOL     OW 3652   2.294   2.670   0.069 -0.0135 -0.5240  0.9004
 1218SOL    HW1 3653   2.295   2.591   0.014  1.0829 -1.1098  1.7105
 1218SOL    HW2 3654   2.232   2.649   0.139 -1.5907  0.3128 -0.1810
 1219SOL     OW 3655   0.086   3.139   2.224  0.1248 -0.8784 -0.2451
 1219SOL    HW1 3656   0.022   3.172   2.161  0.2842  0.7997  0.4397
 1219SOL    HW2 3657   0.149   3.090   2.171 -0.7583 -1.0917 -1.1357
 1220SOL     OW 3658   0.190   4.436   0.113  0.4069 -0.3593 -0.1997
 1220SOL    HW1 3659   0.205   4.405   0.023 -0.4051 -0.6260 -0.2510
 1220SOL    HW2 3660   0.238   4.519   0.118  1.3456 -0.8658 -0.5424
 1221SOL     OW 3661   0.699   3.012   1.239  0.2894 -0.0282 -0.1496
 1221SOL    HW1 3662   0.672   3.001   1.148 -2.2918  0.4615  0.4799
 1221SOL    HW2 3663   0.792   3.036   1.234  0.5097 -1.1467 -2.5543
 1222SOL     OW 3664   3.982   2.553   3.180  0.2130  0.1172 -0.1406
 1222SOL    HW1 3665   3.898   2.536   3.224  1.3793  0.9513  2.6246
 1222SOL    HW2 3666   3.981   2.647   3.163  0.6105  0.1510  0.0056
 1223SOL     OW 3667   2.482   0.166   4.059 -0.4520 -0.2326  0.5781
 1223SOL    HW1 3668   2.461   0.191   3.969 -1.0575 -1.2371  0.4159
 1223SOL    HW2 3669   2.439   0.233   4.113 -2.5464 -1.1592  0.1866
 1224SOL     OW 3670   0.998   1.651   4.003  0.2146  0.3605  0.5081
 1224SOL    HW1 3671   0.948   1.573   4.026 -0.7411  1.1864  1.3859
 1224SOL    HW2 3672   1.014   1.644   3.909  0.6910 -1.1743  0.6865
 1225SOL     OW 3673   0.186   1.507   0.275 -0.9139 -0.0301  0.0263
 1225SOL    HW1 3674   0.193   1.454   0.195  1.5146 -0.9094  0.7069
 1225SOL    HW2 3675   0.148   1.589   0.247 -1.3221 -0.8032 -1.7952
 1226SOL     OW 3676   1.257   2.584   1.514 -0.1336 -0.2760  0.5396
 1226SOL    HW1 3677   1.201   2.583   1.592  0.1622  0.9568  0.7895
 1226SOL    HW2 3678   1.345   2.564   1.548  0.2050  1.4292  0.7275
 1227SOL     OW 3679   1.331   0.583   4.147  0.5965 -0.4019  0.1442
 1227SOL    HW1 3680   1.351   0.572   4.054  1.0081  1.3560 -0.0195
 1227SOL    HW2 3681   1.293   0.671   4.154  0.0008 -0.7373  1.5505
 1228SOL     OW 3682   1.044   0.738   1.968 -0.5324  0.4270 -0.3441
 1228SOL    HW1 3683   1.120   0.795   1.980 -0.6610  0.6395 -0.5244
 1228SOL    HW2 3684   1.082   0.651   1.957 -0.4301 -0.0421  2.7770
 1229SOL     OW 3685   1.531   2.105   2.949 -0.3484 -0.3884 -0.1847
 1229SOL    HW1 3686   1.530   2.189   2.903  1.1622  0.1011  0.6085
 1229SOL    HW2 3687   1.497   2.043   2.885 -0.0699  0.5779 -1.3183
 1230SOL     OW 3688   1.418   0.571   1.978  0.8221  0.3454  0.0354
 1230SOL    HW1 3689   1.427   0.617   1.895  0.7083  0.3187  0.0077
 1230SOL    HW2 3690   1.475   0.619   2.038  0.9388  0.3372 -0.0686
 1231SOL     OW 3691   3.097   3.695   2.762 -0.5878 -0.4152 -0.7574
 1231SOL    HW1 3692   3.024   3.679   2.703 -1.8513  0.7758  0.4076
 1231SOL    HW2 3693   3.056   3.722   2.844  1.1461 -0.6200  0.2199
 1232SOL     OW 3694   3.705   4.000   1.288 -0.4327 -0.3505 -0.3501
 1232SOL    HW1 3695   3.753   4.039   1.361 -0.8662 -0.8175  0.1957
 1232SOL    HW2 3696   3.772   3.956   1.236  0.0704  1.1150 -0.9978
 1233SOL     OW 3697   4.212   0.214   1.436 -0.1643  0.4546 -0.6110
 1233SOL    HW1 3698   4.187   0.155   1.507  1.5231  0.1714 -0.2131
 1233SOL    HW2 3699   4.307   0.223   1.445  0.2786 -0.3739 -3.4023
 1234SOL     OW 3700   1.464   0.511   3.219 -0.3683  0.4807  0.3850
 1234SOL    HW1 3701   1.397   0.543   3.159  0.7916 -0.6326 -1.6188
 1234SOL    HW2 3702   1.422   0.439   3.266 -1.3788  1.5509  1.1726
 1235SOL     OW 3703   1.330   0.856   4.028 -0.3295  0.0153  0.5549
 1235SOL    HW1 3704   1.380   0.907   4.092 -0.5668  0.5266  0.3349
 1235SOL    HW2 3705   1.292   0.921   3.969  0.8081 -0.4887 -0.7969
 1236SOL     OW 3706   2.729   0.197   4.177  0.1123  0.2292  0.1787
 1236SOL    HW1 3707   2.807   0.152   4.145 -0.4318 -0.6499  0.0509
 1236SOL    HW2 3708   2.660   0.171   4.115 -0.5472  0.0151  0.9967
 1237SOL     OW 3709   0.400   2.894   2.690 -0.1833  0.1440  0.3106
 1237SOL    HW1 3710   0.493   2.915   2.694 -0.4364  1.4596 -0.1034
 1237SOL    HW2 3711   0.385   2.833   2.763  1.3386 -1.6002 -0.7611
 1238SOL     OW 3712   0.287   3.782   2.571  0.1398  0.0896 -0.6418
 1238SOL    HW1 3713   0.234   3.846   2.619  1.2620  0.4003  0.2251
 1238SOL    HW2 3714   0.359   3.832   2.534 -0.8820 -0.0620 -3.0760
 1239SOL     OW 3715   3.503   2.679   2.145  0.5839  0.0380  0.1945
 1239SOL    HW1 3716   3.426   2.727   2.112  0.4800 -0.1521  0.1589
 1239SOL    HW2 3717   3.505   2.599   2.094 -0.0531 -0.6375  1.1860
 1240SOL     OW 3718   1.566   1.336   0.750  0.3782  0.2802 -0.2575
 1240SOL    HW1 3719   1.661   1.334   0.740  0.6847  0.0598  2.0967
 1240SOL    HW2 3720   1.543   1.248   0.779 -0.3968  0.6399  0.2686
 1241SOL     OW 3721   3.288   0.474   0.679 -0.3068 -1.0791 -0.0521
 1241SOL    HW1 3722   3.232   0.552   0.674  0.6174 -0.3516  0.5915
 1241SOL    HW2 3723   3.279   0.443   0.769 -0.7488 -1.7797 -0.3351
 1242SOL     OW 3724   0.185   2.460   0.577  0.2454  0.3065 -0.1931
 1242SOL    HW1 3725   0.215   2.371   0.595  1.8276  0.5868 -1.3318
 1242SOL    HW2 3726   0.156   2.458   0.486  1.3836  1.2329 -0.5905
 1243SOL     OW 3727   1.048   3.198   0.267 -0.3193  0.0726 -0.2420
 1243SOL    HW1 3728   1.121   3.192   0.329  0.5234 -2.7007 -1.3466
 1243SOL    HW2 3729   1.068   3.274   0.212 -0.2905  1.6438  1.8114
 1244SOL     OW 3730   3.358   2.693   3.940  0.3589  0.2887 -0.0745
 1244SOL    HW1 3731   3.349   2.765   3.878 -2.0091  0.2837  0.1523
 1244SOL    HW2 3732   3.282   2.702   3.999  1.4630 -0.8373  1.6147
 1245SOL     OW 3733   3.027   0.485   3.102  0.8791 -0.2259  0.5462
 1245SOL    HW1 3734   3.052   0.416   3.041 -0.5157 -1.4877  1.3420
 1245SOL    HW2 3735   3.065   0.458   3.186 -0.9255 -0.8539  1.1961
 1246SOL     OW 3736   3.512   3.968   3.226 -0.3200 -0.1726  0.1249
 1246SOL    HW1 3737   3.567   4.041   3.252  1.1306 -0.5262 -1.7054
 1246SOL    HW2 3738   3.433   4.008   3.188  0.7625  0.5285 -1.4991
 1247SOL     OW 3739   2.796   1.391   2.694  0.1852  0.2483 -0.1379
 1247SOL    HW1 3740   2.882   1.355   2.715 -0.1931 -0.9099 -0.4917
 1247SOL    HW2 3741   2.808   1.433   2.608  0.5339  0.6103  0.0859
 1248SOL     OW 3742   2.453   3.275   1.768  0.4482  0.0564  0.3758
 1248SOL    HW1 3743   2.436   3.364   1.799  1.4041 -0.2377  1.8537
 1248SOL    HW2 3744   2.533   3.283   1.716 -0.5351  0.3600 -1.1392
 1249SOL     OW 3745   2.906   1.670   1.916  0.1669  0.4815  0.1579
 1249SOL    HW1 3746   2.930   1.739   1.978  0.0363 -1.0457  2.0001
 1249SOL    HW2 3747   2.811   1.663   1.922  0.1472  0.3458 -0.2595
 1250SOL     OW 3748   2.260   1.056   4.284 -0.0864 -0.1798 -0.3182
 1250SOL    HW1 3749   2.277   1.072   4.377  1.8477  0.1589 -0.6870
 1250SOL    HW2 3750   2.242   0.962   4.279  0.3650 -0.3068  0.3268
 1251SOL     OW 3751   1.962   3.557   0.228  0.5228 -0.3208 -0.6316
 1251SOL    HW1 3752   2.012   3.529   0.152  1.1294 -0.5021 -0.1740
 1251SOL    HW2 3753   1.900   3.485   0.243  2.1522 -1.5462  0.6051
 1252SOL     OW 3754   2.513   2.363   3.176  0.0273 -0.6265  0.2481
 1252SOL    HW1 3755   2.465   2.413   3.242 -0.3092 -1.1193  0.3857
 1252SOL    HW2 3756   2.485   2.399   3.092  0.8432  0.3495  0.3822
 1253SOL     OW 3757   1.101   3.398   3.254 -0.0471 -0.3336 -0.3704
 1253SOL    HW1 3758   1.187   3.433   3.227 -0.2381  0.9239  0.5148
 1253SOL    HW2 3759   1.050   3.476   3.274 -0.2172 -1.0922  2.6294
 1254SOL     OW 3760   0.851   2.237   3.973 -0.0083  0.5922 -0.2989
 1254SOL    HW1 3761   0.913   2.255   3.902 -0.8113 -0.8657 -1.4396
 1254SOL    HW2 3762   0.858   2.142   3.986 -1.1232  0.5980  0.3868
 1255SOL     OW 3763   2.525   2.264   3.584  0.3789 -0.0694  0.3006
 1255SOL    HW1 3764   2.482   2.180   3.597  1.0505 -0.2930  1.1925
 1255SOL    HW2 3765   2.484   2.322   3.648  0.0416  0.2402 -0.1900
 1256SOL     OW 3766   2.161   0.351   0.532  0.2979 -0.0205 -0.1743
 1256SOL    HW1 3767   2.085   0.294   0.540 -0.0882  0.6856  1.6130
 1256SOL    HW2 3768   2.236   0.292   0.532 -0.1956 -0.7038 -1.6211
 1257SOL     OW 3769   0.330   2.367   4.007 -0.6676  0.0414 -0.0603
 1257SOL    HW1 3770   0.291   2.280   4.009  0.2212 -0.3727 -0.1173
 1257SOL    HW2 3771   0.342   2.386   3.914  2.7045 -1.4763 -0.0906
 1258SOL     OW 3772   1.345   4.372   3.336  0.4994 -0.6035  0.3510
 1258SOL    HW1 3773   1.403   4.304   3.302  0.0044 -1.9294  1.9812
 1258SOL    HW2 3774   1.376   4.387   3.425 -0.5043  0.0325  0.6051
 1259SOL     OW 3775   0.571   2.001   1.339 -0.2107 -0.7008  0.6243
 1259SOL    HW1 3776   0.635   2.017   1.409 -1.6091 -3.8287  2.8946
 1259SOL    HW2 3777   0.492   2.047   1.368  0.1601  0.9519 -0.8252
 1260SOL     OW 3778   2.872   1.751   2.389 -0.0274 -0.6424  0.2070
 1260SOL    HW1 3779   2.853   1.663   2.422 -1.0659 -0.5264 -0.0653
 1260SOL    HW2 3780   2.952   1.739   2.337 -0.5952 -1.6005 -0.5008
 1261SOL     OW 3781   2.655   1.348   4.250  0.4508  0.2600 -0.4768
 1261SOL    HW1 3782   2.672   1.298   4.330 -0.3937  1.4274  0.4643
 1261SOL    HW2 3783   2.640   1.281   4.183 -0.2657 -0.7587  0.6587
 1262SOL     OW 3784   3.713   2.273   0.687 -0.6776 -0.2307  0.0444
 1262SOL    HW1 3785   3.712   2.355   0.638  0.9098  0.4311  1.0249
 1262SOL    HW2 3786   3.671   2.294   0.770 -1.0335 -0.6466 -0.0263
 1263SOL     OW 3787   1.107   2.279   1.539 -0.1578 -0.4225  0.2430
 1263SOL    HW1 3788   1.181   2.236   1.497 -1.0266 -1.4538 -0.2604
 1263SOL    HW2 3789   1.030   2.243   1.496 -0.9903  0.1038  1.2411
 1264SOL     OW 3790   1.244   1.691   0.769 -0.2059  0.0356 -0.3231
 1264SOL    HW1 3791   1.235   1.747   0.692 -2.3408 -0.8959 -0.8161
 1264SOL    HW2 3792   1.221   1.603   0.739 -0.5859 -0.4528  1.2612
 1265SOL     OW 3793   1.352   1.044   2.840 -0.1409 -0.7373  0.2897
 1265SOL    HW1 3794   1.323   1.112   2.780  1.3271 -1.0042 -0.7694
 1265SOL    HW2 3795   1.288   0.974   2.830  0.5162 -1.1050 -1.6003
 1266SOL     OW 3796   1.654   0.424   3.523 -0.9281  0.2442  0.0682
 1266SOL    HW1 3797   1.720   0.423   3.591 -0.1183  0.2992 -0.6997
 1266SOL    HW2 3798   1.608   0.508   3.534 -0.3352  0.5663  0.1054
 1267SOL     OW 3799   2.166   4.085   0.226  0.5446 -0.0831 -0.2597
 1267SOL    HW1 3800   2.211   4.164   0.257 -2.6168  1.7666  0.1252
 1267SOL    HW2 3801   2.164   4.095   0.130  1.4939 -0.5392 -0.3375
 1268SOL     OW 3802   2.410   0.744   3.306 -0.3378 -0.0067 -0.3310
 1268SOL    HW1 3803   2.424   0.829   3.264 -0.4621  0.9875  1.5320
 1268SOL    HW2 3804   2.465   0.747   3.384 -1.0895 -1.2609  0.2806
 1269SOL     OW 3805   4.116   0.374   2.203  0.2391 -0.0627  0.4307
 1269SOL    HW1 3806   4.139   0.335   2.287  1.3335 -0.2968  0.0428
 1269SOL    HW2 3807   4.140   0.466   2.212  1.3071 -0.2877  0.0582
 1270SOL     OW 3808   2.606   3.906   3.025  0.2245  0.3140  0.2074
 1270SOL    HW1 3809   2.577   3.987   2.982  0.1886  1.4510  2.2778
 1270SOL    HW2 3810   2.701   3.915   3.030  0.2200  0.2277  0.4328
 1271SOL     OW 3811   1.212   2.269   0.345  0.5201  0.0615  0.0843
 1271SOL    HW1 3812   1.293   2.282   0.394  0.0720 -0.7942  1.0899
 1271SOL    HW2 3813   1.175   2.356   0.336 -0.5634  0.0870  3.3814
 1272SOL     OW 3814   3.592   1.741   1.162 -0.3495  0.6323 -0.2451
 1272SOL    HW1 3815   3.609   1.657   1.206 -1.2408  0.1228 -0.8366
 1272SOL    HW2 3816   3.648   1.804   1.208  0.1216 -0.2291  0.3977
 1273SOL     OW 3817   3.882   2.040   0.002  0.1177 -0.8486 -0.3495
 1273SOL    HW1 3818   3.869   2.100   0.076 -0.6848 -1.2205 -0.1861
 1273SOL    HW2 3819   3.922   2.095  -0.066 -0.0918 -0.2626 -0.0084
 1274SOL     OW 3820   3.198   2.860   1.772  0.4842 -0.1625  0.0543
 1274SOL    HW1 3821   3.275   2.896   1.729  1.1254 -0.1104  1.2093
 1274SOL    HW2 3822   3.124   2.899   1.726  1.1253 -0.7285 -1.5037
 1275SOL     OW 3823   3.976   0.593   0.119  0.2294 -0.0705 -0.4957
 1275SOL    HW1 3824   4.001   0.584   0.027  0.8943  2.0297 -0.5673
 1275SOL    HW2 3825   3.884   0.618   0.116  0.6255  1.4629 -0.7010
 1276SOL     OW 3826   0.982   0.139   2.778  0.0005  0.0839 -0.4196
 1276SOL    HW1 3827   1.007   0.151   2.869 -0.1398 -0.1747 -0.3473
 1276SOL    HW2 3828   1.064   0.115   2.734  0.1014  0.3831 -0.3941
 1277SOL     OW 3829   2.287   1.455   0.940 -0.0343  0.5624 -0.1853
 1277SOL    HW1 3830   2.231   1.476   0.865 -0.0821 -0.0509 -0.3294
 1277SOL    HW2 3831   2.361   1.408   0.902  0.2983  0.8723  0.0727
 1278SOL     OW 3832   0.083   3.514   1.193 -0.4561 -0.1434  0.1171
 1278SOL    HW1 3833   0.138   3.592   1.180 -0.5263 -0.4763 -2.8553
 1278SOL    HW2 3834   0.083   3.500   1.288  2.5939  1.3037  0.4567
 1279SOL     OW 3835   2.423   3.531   4.428 -0.1444  0.3262 -0.4620
 1279SOL    HW1 3836   2.469   3.574   4.356  0.3791 -0.7280 -0.7739
 1279SOL    HW2 3837   2.386   3.452   4.390 -1.1741  0.5353  0.0800
 1280SOL     OW 3838   3.402   0.538   2.280  0.4323 -0.5408  0.0943
 1280SOL    HW1 3839   3.441   0.609   2.229  0.1852 -0.0843  0.5264
 1280SOL    HW2 3840   3.412   0.566   2.371 -1.7771  0.1027  0.2143
 1281SOL     OW 3841   0.774   3.878   1.332 -0.1619  0.4823  0.3021
 1281SOL    HW1 3842   0.825   3.844   1.258  0.0670 -0.0197  0.6834
 1281SOL    HW2 3843   0.840   3.906   1.396 -0.3484  1.6191  0.0142
 1282SOL     OW 3844   0.193   0.006   1.685  0.1391  0.3080 -0.3938
 1282SOL    HW1 3845   0.250   0.060   1.740  1.7750  0.1107 -1.8020
 1282SOL    HW2 3846   0.199   0.045   1.598 -3.7602  1.6958 -0.2641
 1283SOL     OW 3847   2.439   4.016   1.366 -0.3885  0.6159 -0.0323
 1283SOL    HW1 3848   2.388   3.934   1.374 -1.2201  1.2345  1.6383
 1283SOL    HW2 3849   2.429   4.042   1.275  0.6666 -1.6113 -0.8508
 1284SOL     OW 3850   3.877   2.482   2.940 -0.8190  0.4738 -0.8898
 1284SOL    HW1 3851   3.854   2.391   2.921 -0.9622  0.5000 -0.8424
 1284SOL    HW2 3852   3.931   2.477   3.019  2.0973  0.0830 -2.7428
 1285SOL     OW 3853   3.963   1.177   0.101  0.6542 -0.4949  0.3848
 1285SOL    HW1 3854   3.870   1.164   0.084  0.4617 -1.0599  1.7759
 1285SOL    HW2 3855   3.967   1.212   0.190  1.6690  1.5074 -0.3729
 1286SOL     OW 3856   1.999   4.308   1.531 -0.0403  0.1641  0.1916
 1286SOL    HW1 3857   1.981   4.232   1.587  0.0764  0.5786  0.7941
 1286SOL    HW2 3858   2.093   4.300   1.511  0.0909  0.4438  0.6944
 1287SOL     OW 3859   0.878   3.482   4.272  0.1541  0.2294 -0.4615
 1287SOL    HW1 3860   0.939   3.492   4.199  1.2552  0.4105  0.4684
 1287SOL    HW2 3861   0.921   3.420   4.331 -0.8748 -0.1716 -0.1083
 1288SOL     OW 3862   0.960   0.673   4.216 -0.5725  0.0446 -0.2324
 1288SOL    HW1 3863   0.991   0.753   4.258 -0.3123  0.1387 -0.6015
 1288SOL    HW2 3864   1.012   0.666   4.136 -0.8572 -0.2913 -0.3905
 1289SOL     OW 3865   3.460   0.950   2.316  0.4273 -1.0086  0.0113
 1289SOL    HW1 3866   3.406   0.926   2.391  0.7264 -0.6606  0.3403
 1289SOL    HW2 3867   3.495   1.036   2.338 -0.7030 -0.1912 -1.1838
 1290SOL     OW 3868   1.560   1.798   0.123 -0.3839 -0.0291 -0.2710
 1290SOL    HW1 3869   1.468   1.811   0.146  0.2647  1.7820  1.6353
 1290SOL    HW2 3870   1.604   1.876   0.157  1.9419 -1.0881 -0.6775
 1291SOL     OW 3871   0.254   1.971   0.058  0.5127  0.1151 -0.4577
 1291SOL    HW1 3872   0.252   1.875   0.062  1.4463  0.1134  0.8104
 1291SOL    HW2 3873   0.167   1.998   0.085  0.7513 -0.3841  0.9309
 1292SOL     OW 3874   3.728   2.797   1.133  0.2682 -0.0251 -0.1410
 1292SOL    HW1 3875   3.763   2.885   1.118  1.0307 -0.3165 -0.1326
 1292SOL    HW2 3876   3.633   2.809   1.136  0.3532  0.7665 -0.3363
 1293SOL     OW 3877   0.482   3.315   2.057 -0.2575  0.3102  0.1207
 1293SOL    HW1 3878   0.519   3.254   1.993 -2.1654 -1.9582  1.0379
 1293SOL    HW2 3879   0.431   3.376   2.004  0.0314 -0.1243 -0.6830
 1294SOL     OW 3880   0.104   1.665   4.341 -0.0995 -0.5137  0.0836
 1294SOL    HW1 3881   0.036   1.646   4.406 -0.4504 -3.0966 -0.9011
 1294SOL    HW2 3882   0.185   1.667   4.392 -0.7632  2.0011  1.1861
 1295SOL     OW 3883   2.410   0.306   2.869 -0.0775  0.0733 -0.0535
 1295SOL    HW1 3884   2.379   0.216   2.870 -0.4133  0.1746  1.8906
 1295SOL    HW2 3885   2.360   0.348   2.799  0.0079 -1.1961 -0.9128
 1296SOL     OW 3886   0.086   1.768   3.382  0.3400  0.6474  0.0495
 1296SOL    HW1 3887   0.142   1.692   3.400  0.9823  1.0024 -0.3862
 1296SOL    HW2 3888   0.042   1.747   3.300 -0.5486  0.1642  0.6354
 1297SOL     OW 3889   2.342   3.199   1.346 -0.1445  0.4831  0.1542
 1297SOL    HW1 3890   2.350   3.295   1.352 -1.0823  0.4964  1.7077
 1297SOL    HW2 3891   2.259   3.185   1.301  0.2362  0.3851 -0.5288
 1298SOL     OW 3892   2.588   4.289   1.145  0.1744  0.4204 -0.0522
 1298SOL    HW1 3893   2.653   4.225   1.174 -0.4379 -0.9412 -1.5685
 1298SOL    HW2 3894   2.605   4.299   1.052 -2.0756 -0.3385 -0.5853
 1299SOL     OW 3895   1.716   0.576   0.398  0.4205 -0.2957 -0.4546
 1299SOL    HW1 3896   1.763   0.585   0.316  0.4681 -0.6037 -0.4621
 1299SOL    HW2 3897   1.784   0.577   0.465  0.2909  1.2913 -0.3147
 1300SOL     OW 3898   1.472   1.400   0.494  0.7686 -0.1516 -0.5912
 1300SOL    HW1 3899   1.524   1.435   0.566 -0.7954  0.3989  0.3218
 1300SOL    HW2 3900   1.488   1.306   0.497  0.2012 -0.2268  0.9356
 1301SOL     OW 3901   1.104   4.300   1.372 -0.4868  0.0740  0.0402
 1301SOL    HW1 3902   1.170   4.359   1.336 -2.6962  1.5937 -1.8139
 1301SOL    HW2 3903   1.093   4.329   1.463  0.8834  0.2133  0.1809
 1302SOL     OW 3904   0.175   0.122   1.399 -0.1551  0.7437  0.3931
 1302SOL    HW1 3905   0.112   0.070   1.349 -1.7255  0.2116  2.7120
 1302SOL    HW2 3906   0.246   0.061   1.418 -0.3049  0.4854  0.1334
 1303SOL     OW 3907   4.051   4.022   1.121  0.0239  0.4735  0.3132
 1303SOL    HW1 3908   3.977   3.968   1.092 -2.0593  3.7500 -1.0308
 1303SOL    HW2 3909   4.128   3.977   1.088 -1.5559 -1.6634 -0.6988
 1304SOL     OW 3910   1.350   3.122   2.585 -0.0083 -0.2575  0.0956
 1304SOL    HW1 3911   1.306   3.050   2.540  0.1181 -0.4631  0.2941
 1304SOL    HW2 3912   1.417   3.079   2.639 -0.9258 -0.1234  1.3841
 1305SOL     OW 3913   2.371   4.253   0.092  0.1404 -0.1187 -0.1959
 1305SOL    HW1 3914   2.309   4.237   0.020  0.0266  0.0670 -0.1395
 1305SOL    HW2 3915   2.352   4.343   0.121  0.3475 -0.1087 -0.0914
 1306SOL     OW 3916   3.404   4.017   2.886  0.2285  1.0176 -0.0984
 1306SOL    HW1 3917   3.462   4.093   2.876  0.9865  0.4339 -0.2378
 1306SOL    HW2 3918   3.316   4.051   2.868  0.5285  1.9168  0.1028
 1307SOL     OW 3919   1.910   2.857   1.540 -0.2581 -0.0708  0.0786
 1307SOL    HW1 3920   1.886   2.948   1.556 -2.1389 -0.3869 -0.6965
 1307SOL    HW2 3921   1.975   2.861   1.470 -0.3906  0.6795 -0.0068
 1308SOL     OW 3922   0.435   1.001   2.088  0.1809  0.8563  0.0446
 1308SOL    HW1 3923   0.497   1.016   2.017  1.7477  1.2678  1.4340
 1308SOL    HW2 3924   0.466   1.057   2.159 -0.9672  0.0077  1.2707
 1309SOL     OW 3925   0.743   1.892   1.597  0.4404 -0.3307  0.4630
 1309SOL    HW1 3926   0.660   1.922   1.634  1.0924  1.0204  0.9254
 1309SOL    HW2 3927   0.752   1.802   1.626  1.0020  0.6817  3.8961
 1310SOL     OW 3928   2.626   1.285   3.606 -0.4466 -0.2590  0.1745
 1310SOL    HW1 3929   2.541   1.243   3.621  0.5464 -2.1852  0.8637
 1310SOL    HW2 3930   2.638   1.343   3.681 -1.7622  1.1734 -0.6812
 1311SOL     OW 3931   3.114   3.496   3.123 -0.2555  0.4462 -0.0343
 1311SOL    HW1 3932   3.027   3.526   3.097  0.7280  0.9668 -3.1179
 1311SOL    HW2 3933   3.146   3.565   3.181 -1.6604  0.5081  0.7189
 1312SOL     OW 3934   2.699   2.606   1.008 -0.2927  0.1896  0.1586
 1312SOL    HW1 3935   2.605   2.618   1.022 -0.8199 -2.1742 -0.8355
 1312SOL    HW2 3936   2.727   2.549   1.080  0.1499  0.0512 -0.1204
 1313SOL     OW 3937   0.988   1.849   3.477  0.3333 -0.3289  0.2887
 1313SOL    HW1 3938   0.917   1.887   3.426  0.3970  0.6124  0.8750
 1313SOL    HW2 3939   1.067   1.864   3.425  0.4779  1.1317  0.8889
 1314SOL     OW 3940   4.289   3.758   3.765  0.3094 -0.4566 -0.3410
 1314SOL    HW1 3941   4.346   3.757   3.842  2.4921  1.0509 -1.8237
 1314SOL    HW2 3942   4.292   3.668   3.733  0.1990 -0.8600  0.7207
 1315SOL     OW 3943   1.357   4.100   3.704 -0.0259  0.1177  0.5685
 1315SOL    HW1 3944   1.435   4.149   3.729  0.0245 -0.8315  2.4780
 1315SOL    HW2 3945   1.314   4.154   3.638  1.9594  0.8945 -0.1590
 1316SOL     OW 3946   3.973   1.831   4.108  0.1628 -0.4973  0.2923
 1316SOL    HW1 3947   3.999   1.909   4.157 -0.6918  0.2487 -0.4063
 1316SOL    HW2 3948   3.981   1.856   4.016 -0.4627 -1.1097  0.0540
 1317SOL     OW 3949   0.863   0.892   0.386  0.3078 -0.0880  0.3508
 1317SOL    HW1 3950   0.858   0.800   0.413  0.6490  0.1983  1.4134
 1317SOL    HW2 3951   0.782   0.907   0.337 -0.9326 -0.2911  2.2616
 1318SOL     OW 3952   2.616   0.253   2.014 -0.2824  0.3932 -0.4634
 1318SOL    HW1 3953   2.530   0.236   2.052 -0.3785  1.3180 -0.2208
 1318SOL    HW2 3954   2.644   0.335   2.055  0.5910  0.2512 -0.7501
 1319SOL     OW 3955   1.803   0.857   0.755 -0.0025  0.4145 -0.6693
 1319SOL    HW1 3956   1.732   0.834   0.695 -0.1902  2.3379 -1.2369
 1319SOL    HW2 3957   1.790   0.799   0.830 -1.9982  0.5142 -0.8798
 1320SOL     OW 3958   1.483   2.547   1.641 -0.6641 -0.1177 -0.0310
 1320SOL    HW1 3959   1.492   2.502   1.724 -1.3149  0.2133  0.2282
 1320SOL    HW2 3960   1.572   2.558   1.608 -0.2964  0.9207  1.2464
 1321SOL     OW 3961   0.389   1.371   4.346 -0.1438  0.6560 -0.0930
 1321SOL    HW1 3962   0.448   1.304   4.313  0.9207  0.4408  2.0508
 1321SOL    HW2 3963   0.335   1.395   4.271  1.7110 -0.1614 -1.7846
 1322SOL     OW 3964   0.989   4.464   1.955  0.8059  0.5597  0.1716
 1322SOL    HW1 3965   1.067   4.413   1.935  1.7270  1.6901  0.7657
 1322SOL    HW2 3966   0.916   4.410   1.924  1.8179 -0.4889 -0.4437
 1323SOL     OW 3967   0.784   0.148   0.657  0.2852  0.3183  0.6074
 1323SOL    HW1 3968   0.695   0.132   0.688 -0.7716  1.3003 -1.6971
 1323SOL    HW2 3969   0.824   0.061   0.652 -1.0628 -0.3067  0.2813
 1324SOL     OW 3970   4.178   3.450   0.464  0.2713 -0.4412  0.3135
 1324SOL    HW1 3971   4.144   3.413   0.545 -0.0841 -0.7769  0.0172
 1324SOL    HW2 3972   4.273   3.445   0.472  0.2301 -0.9238  0.5059
 1325SOL     OW 3973   2.238   2.155   2.531 -0.0762 -0.3442 -0.5958
 1325SOL    HW1 3974   2.245   2.234   2.584  0.3075 -0.8134  0.0692
 1325SOL    HW2 3975   2.314   2.102   2.556  0.5992 -0.2108 -2.2472
 1326SOL     OW 3976   2.408   0.574   4.382 -0.2460  0.2410  0.3384
 1326SOL    HW1 3977   2.458   0.656   4.391 -1.1713  0.8381  0.1920
 1326SOL    HW2 3978   2.462   0.508   4.425 -0.0343  1.1517  1.5010
 1327SOL     OW 3979   0.915   3.612   0.224 -0.0968 -0.5917  0.3060
 1327SOL    HW1 3980   0.953   3.547   0.165 -0.5240 -1.6000  1.1038
 1327SOL    HW2 3981   0.929   3.695   0.179  0.2589 -1.2422 -0.8609
 1328SOL     OW 3982   3.416   1.191   0.692 -0.1025  0.1045  0.4702
 1328SOL    HW1 3983   3.466   1.259   0.738  0.6732 -0.2000  0.1022
 1328SOL    HW2 3984   3.410   1.223   0.602  0.7430 -0.5543  0.1660
 1329SOL     OW 3985   1.260   1.511   2.927 -0.1958  0.4389 -0.5757
 1329SOL    HW1 3986   1.232   1.492   3.016  0.3388  0.9387 -0.2929
 1329SOL    HW2 3987   1.194   1.570   2.892 -0.5347  0.0495 -0.5987
 1330SOL     OW 3988   3.737   1.465   2.027  0.6307 -0.4178  0.0146
 1330SOL    HW1 3989   3.828   1.465   1.997  0.3132  1.3984 -1.0945
 1330SOL    HW2 3990   3.699   1.387   1.986  1.2464 -0.2019 -1.0209
 1331SOL     OW 3991   4.446   0.044   2.651 -0.1155 -0.1917  0.4535
 1331SOL    HW1 3992   4.474   0.123   2.605  0.3587 -0.0836  0.9139
 1331SOL    HW2 3993   4.513   0.031   2.719 -1.6905  0.6383  2.2700
 1332SOL     OW 3994   2.327   1.048   0.309 -0.1005  0.1880 -0.0757
 1332SOL    HW1 3995   2.336   1.143   0.309  0.7986  0.1585 -2.1177
 1332SOL    HW2 3996   2.396   1.017   0.367  0.0664  0.7423  0.0263
 1333SOL     OW 3997   4.370   4.230   1.218 -0.4251 -0.0748  0.2087
 1333SOL    HW1 3998   4.452   4.185   1.199 -0.3683 -0.0760  0.4444
 1333SOL    HW2 3999   4.330   4.245   1.133 -0.3143 -0.3288  0.1110
 1334SOL     OW 4000   0.482   1.630   1.608 -0.3603 -0.0017 -0.3579
 1334SOL    HW1 4001   0.456   1.722   1.612  0.6601  0.4055 -2.0465
 1334SOL    HW2 4002   0.440   1.596   1.529  0.7612 -0.4607 -0.7819
 1335SOL     OW 4003   3.403   1.705   2.517  0.0124  0.2372 -0.2062
 1335SOL    HW1 4004   3.463   1.686   2.445 -0.7768 -0.8275 -0.6206
 1335SOL    HW2 4005   3.389   1.799   2.513  2.0648  0.6033  0.2533
 1336SOL     OW 4006   2.981   2.176   1.491  0.3409 -0.2386  0.5902
 1336SOL    HW1 4007   2.911   2.124   1.452  0.0695  0.1117  0.6005
 1336SOL    HW2 4008   3.061   2.142   1.452  0.2557 -1.3118  1.3194
 1337SOL     OW 4009   3.668   3.106   3.832 -0.1974  0.0183  0.7994
 1337SOL    HW1 4010   3.576   3.085   3.847 -0.4549  0.2297 -0.3338
 1337SOL    HW2 4011   3.712   3.086   3.915 -1.3829  0.6560  1.5966
 1338SOL     OW 4012   1.633   0.369   2.101  0.2267 -0.0955  0.0162
 1338SOL    HW1 4013   1.567   0.438   2.106 -0.9978 -1.2036 -0.2778
 1338SOL    HW2 4014   1.658   0.367   2.009  0.7289  0.3613  0.1376
 1339SOL     OW 4015   0.255   2.705   2.292  0.2484  0.5946  0.0369
 1339SOL    HW1 4016   0.323   2.698   2.360  0.1565 -1.4441 -0.0271
 1339SOL    HW2 4017   0.173   2.711   2.342  0.2874  0.4689  0.1186
 1340SOL     OW 4018   0.894   1.452   0.068  0.4502  0.9165 -0.1520
 1340SOL    HW1 4019   0.814   1.416   0.105 -0.0054  0.1950 -1.7390
 1340SOL    HW2 4020   0.958   1.381   0.076  0.3624  0.7737 -0.6604
 1341SOL     OW 4021   0.008   4.482   0.910 -0.4520 -0.3617  0.5627
 1341SOL    HW1 4022   0.076   4.430   0.867 -0.0102 -1.4134  2.4082
 1341SOL    HW2 4023  -0.070   4.427   0.908 -1.4754  0.9928 -1.8877
 1342SOL     OW 4024   1.702   1.815   1.886 -0.2028  0.6559 -0.0619
 1342SOL    HW1 4025   1.786   1.855   1.859 -0.8478  1.1919 -1.3755
 1342SOL    HW2 4026   1.654   1.805   1.804 -1.4324  0.3581  0.6821
 1343SOL     OW 4027   2.096   1.157   0.776 -0.0139  0.3434  0.3385
 1343SOL    HW1 4028   2.117   1.083   0.720  0.7144  0.2729  0.6913
 1343SOL    HW2 4029   2.141   1.138   0.859 -0.6392  0.6947  0.7702
 1344SOL     OW 4030   3.419   1.950   0.298 -0.4189  0.4309  0.4622
 1344SOL    HW1 4031   3.456   1.953   0.210 -1.5860  1.3012 -0.0214
 1344SOL    HW2 4032   3.494   1.939   0.356  0.3227 -0.5616 -0.6661
 1345SOL     OW 4033   4.211   0.784   4.320 -0.1884 -0.0302  0.3509
 1345SOL    HW1 4034   4.155   0.856   4.351  1.1197  0.1687  2.4591
 1345SOL    HW2 4035   4.273   0.827   4.261 -0.7105  0.1848 -0.0522
 1346SOL     OW 4036   4.186   2.320   0.144  0.3487  0.0018  0.1043
 1346SOL    HW1 4037   4.099   2.295   0.113 -0.3347  0.0775  1.8112
 1346SOL    HW2 4038   4.183   2.416   0.146 -0.3045 -0.0062  2.0415
 1347SOL     OW 4039   4.077   0.745   0.792 -0.4958  0.2994  0.2673
 1347SOL    HW1 4040   4.152   0.701   0.751 -0.9157 -0.5574  0.3910
 1347SOL    HW2 4041   4.104   0.758   0.883  0.2788  1.8379 -0.1498
 1348SOL     OW 4042   1.617   4.386   1.414 -0.0309 -0.0111  0.0018
 1348SOL    HW1 4043   1.561   4.463   1.421  0.6849  0.6087 -0.8695
 1348SOL    HW2 4044   1.648   4.371   1.503  0.6035  1.3067  0.0275
 1349SOL     OW 4045   3.324   3.783   4.204  0.2301  0.5979  0.4910
 1349SOL    HW1 4046   3.378   3.707   4.225  0.1633  0.4605  0.1710
 1349SOL    HW2 4047   3.387   3.853   4.186  0.3224  0.2720 -0.5099
 1350SOL     OW 4048   3.892   2.577   1.084 -0.4917  0.4706  0.5886
 1350SOL    HW1 4049   3.830   2.649   1.100 -0.9528  0.6208 -1.4942
 1350SOL    HW2 4050   3.900   2.574   0.988  1.0938 -0.9485  0.7251
 1351SOL     OW 4051   3.504   4.113   0.580  0.2568  0.3143 -0.4567
 1351SOL    HW1 4052   3.542   4.183   0.634 -0.2430  0.3951 -0.2074
 1351SOL    HW2 4053   3.546   4.123   0.495 -1.4986  2.4133 -1.1656
 1352SOL     OW 4054   3.208   1.388   1.068 -0.0749 -0.3916  0.1551
 1352SOL    HW1 4055   3.234   1.308   1.022  1.8644  0.0889  0.3371
 1352SOL    HW2 4056   3.188   1.359   1.157  2.2340 -0.5108  0.6937
 1353SOL     OW 4057   2.367   2.226   3.929  0.4549  0.7114  0.2899
 1353SOL    HW1 4058   2.304   2.221   3.857  0.7158  0.5544  0.0714
 1353SOL    HW2 4059   2.401   2.316   3.924  0.1681  0.8329  0.4795
 1354SOL     OW 4060   1.698   0.692   2.808  0.6160  0.1861  0.4526
 1354SOL    HW1 4061   1.743   0.756   2.753 -1.2488  1.5076  0.3907
 1354SOL    HW2 4062   1.744   0.695   2.892  1.2800  0.7270  0.0757
 1355SOL     OW 4063   3.694   2.238   1.547 -0.1155  0.8209 -0.4821
 1355SOL    HW1 4064   3.704   2.210   1.456 -0.6037  0.6951 -0.4952
 1355SOL    HW2 4065   3.777   2.281   1.567  0.1570  0.4825 -0.8553
 1356SOL     OW 4066   2.497   2.772   1.451  0.1174  0.3094 -0.3968
 1356SOL    HW1 4067   2.571   2.803   1.502 -0.6769  0.6060  0.6047
 1356SOL    HW2 4068   2.486   2.838   1.382  1.3278 -0.2083 -1.1215
 1357SOL     OW 4069   4.135   0.447   0.552 -0.2411  1.0529  0.3660
 1357SOL    HW1 4070   4.181   0.447   0.636 -0.4671  1.4465  0.4944
 1357SOL    HW2 4071   4.123   0.355   0.531 -1.4633  0.9271  1.4810
 1358SOL     OW 4072   1.198   2.685   4.458  0.4008 -0.3770 -0.0275
 1358SOL    HW1 4073   1.273   2.627   4.472  0.5694  0.2936  2.1759
 1358SOL    HW2 4074   1.121   2.629   4.472  0.5042 -0.6903 -0.6814
 1359SOL     OW 4075   3.865   4.240   0.992 -0.3131  0.0342  0.7150
 1359SOL    HW1 4076   3.928   4.168   0.985 -1.6657 -1.2420  1.1908
 1359SOL    HW2 4077   3.908   4.304   1.050 -0.0413 -1.5129  2.3137
 1360SOL     OW 4078   1.439   4.331   2.315 -0.0006  0.1872  0.2083
 1360SOL    HW1 4079   1.485   4.407   2.351 -1.3946  0.4047  1.6463
 1360SOL    HW2 4080   1.489   4.255   2.347 -1.6565  0.3246  3.5609
 1361SOL     OW 4081   3.561   2.941   2.459 -0.1979 -0.1178 -0.4825
 1361SOL    HW1 4082   3.553   2.847   2.445  0.5461 -0.0225 -1.7071
 1361SOL    HW2 4083   3.471   2.973   2.465 -0.4680 -0.7896 -0.9314
 1362SOL     OW 4084   1.418   0.301   0.554  0.0289  0.0281  0.1464
 1362SOL    HW1 4085   1.478   0.274   0.484 -0.3394  0.6768 -0.4191
 1362SOL    HW2 4086   1.425   0.231   0.619  0.2040 -0.6919 -0.6370
 1363SOL     OW 4087   0.318   4.351   0.522 -0.1995  0.1552  0.0722
 1363SOL    HW1 4088   0.402   4.378   0.559  0.0296  0.1552 -0.4357
 1363SOL    HW2 4089   0.340   4.318   0.435 -0.8988  1.4952 -0.6366
 1364SOL     OW 4090   2.405   2.963   2.391  0.3917  1.1748  0.0146
 1364SOL    HW1 4091   2.417   3.034   2.328  0.4002  0.0387 -1.3076
 1364SOL    HW2 4092   2.467   2.896   2.363 -0.5488  0.1037  0.4288
 1365SOL     OW 4093   0.507   0.676   1.925 -0.2136  0.0125  0.5411
 1365SOL    HW1 4094   0.509   0.769   1.901  1.3114 -0.0698  0.2367
 1365SOL    HW2 4095   0.598   0.647   1.916 -0.5159 -1.3140  1.4330
 1366SOL     OW 4096   1.497   3.223   1.484 -0.2007 -0.0883  0.0577
 1366SOL    HW1 4097   1.580   3.201   1.442  0.4580  0.6722  0.9246
 1366SOL    HW2 4098   1.461   3.295   1.432  0.0254  0.0475  0.0897
 1367SOL     OW 4099   1.467   3.999   0.760 -0.3281  0.1618  0.4861
 1367SOL    HW1 4100   1.528   4.003   0.834  0.2251  0.2054  0.0338
 1367SOL    HW2 4101   1.381   4.008   0.800 -0.0584 -0.2047  1.1671
 1368SOL     OW 4102   2.226   2.722   1.231  0.2749  0.5611  0.1810
 1368SOL    HW1 4103   2.222   2.747   1.323  2.2500  1.0013  0.1970
 1368SOL    HW2 4104   2.317   2.694   1.218 -0.4901 -1.5241 -1.1429
 1369SOL     OW 4105   2.844   2.607   1.920 -0.2823 -0.1085 -0.4415
 1369SOL    HW1 4106   2.785   2.571   1.987 -0.5105 -0.5767 -0.8911
 1369SOL    HW2 4107   2.927   2.561   1.935 -0.4774 -0.5822 -0.7995
 1370SOL     OW 4108   2.682   3.937   3.344 -0.5550 -0.3197 -0.5347
 1370SOL    HW1 4109   2.750   3.870   3.342 -0.7323 -0.6973  2.3201
 1370SOL    HW2 4110   2.612   3.900   3.398 -1.3406  1.5559 -0.1667
 1371SOL     OW 4111   0.579   2.187   3.474 -0.0369 -0.3149 -0.2356
 1371SOL    HW1 4112   0.576   2.158   3.565  0.7393 -0.5583 -0.2760
 1371SOL    HW2 4113   0.669   2.167   3.446  0.2601  1.2862 -0.5387
 1372SOL     OW 4114   2.357   2.482   3.355  0.1947  0.2110 -0.2289
 1372SOL    HW1 4115   2.341   2.576   3.363  1.0726  0.3013  0.7758
 1372SOL    HW2 4116   2.331   2.446   3.440  0.8142 -0.2931 -0.2423
 1373SOL     OW 4117   3.279   1.055   1.398  0.3257 -0.3030  0.0020
 1373SOL    HW1 4118   3.333   1.002   1.340  0.0027 -1.3166  0.6157
 1373SOL    HW2 4119   3.278   1.007   1.481  2.5484  2.1274  1.6062
 1374SOL     OW 4120   2.639   0.524   0.855 -0.3880  0.2399 -0.5340
 1374SOL    HW1 4121   2.580   0.570   0.914  0.1833 -0.5195  0.6685
 1374SOL    HW2 4122   2.655   0.440   0.898 -0.6452 -0.7033 -2.2015
 1375SOL     OW 4123   2.641   2.524   1.361 -0.4766  0.5028 -0.2359
 1375SOL    HW1 4124   2.618   2.610   1.396 -1.0073  0.2794 -0.0248
 1375SOL    HW2 4125   2.726   2.537   1.319  0.0184  0.8667  0.8343
 1376SOL     OW 4126   3.084   0.685   0.586  0.2332 -0.0937  0.0058
 1376SOL    HW1 4127   2.992   0.661   0.592 -0.0563  1.0499  0.2947
 1376SOL    HW2 4128   3.084   0.772   0.547  1.1027  0.4825  1.2172
 1377SOL     OW 4129   2.789   1.204   4.434  0.9814  0.4590 -0.1186
 1377SOL    HW1 4130   2.883   1.201   4.414  1.2603 -2.0017  1.2267
 1377SOL    HW2 4131   2.782   1.168   4.522 -1.3743 -0.9055 -0.7750
 1378SOL     OW 4132   0.028   4.477   1.225  0.0946  0.1555  0.1203
 1378SOL    HW1 4133  -0.025   4.398   1.237  1.3060 -0.7041 -0.0768
 1378SOL    HW2 4134   0.090   4.454   1.156 -0.4272  1.7653 -0.9521
 1379SOL     OW 4135   3.446   1.369   3.662  0.4857 -0.3359  0.0406
 1379SOL    HW1 4136   3.467   1.422   3.585 -0.0444  0.3685  0.3777
 1379SOL    HW2 4137   3.479   1.282   3.640 -0.0240 -0.2480 -1.1559
 1380SOL     OW 4138   1.833   2.462   1.723 -0.2155 -0.2398 -0.2363
 1380SOL    HW1 4139   1.886   2.442   1.801 -1.1391 -1.3961  0.1254
 1380SOL    HW2 4140   1.788   2.380   1.704 -1.9894  0.7543 -0.4509
 1381SOL     OW 4141   1.122   2.219   2.410  0.4479 -0.0268 -0.1798
 1381SOL    HW1 4142   1.135   2.314   2.404  0.5578 -0.0238  0.0806
 1381SOL    HW2 4143   1.208   2.185   2.431  0.4952 -0.2270 -0.6818
 1382SOL     OW 4144   0.278   2.453   2.437 -0.3211  0.0072 -0.1734
 1382SOL    HW1 4145   0.364   2.493   2.454  0.5474 -1.5347 -0.7153
 1382SOL    HW2 4146   0.297   2.360   2.428 -2.2415 -0.5212  0.8147
 1383SOL     OW 4147   2.581   4.268   0.448  0.7530  0.5768 -0.1725
 1383SOL    HW1 4148   2.673   4.294   0.442  0.5248  1.0827 -3.1994
 1383SOL    HW2 4149   2.563   4.223   0.365 -1.4442 -0.5404  0.8229
 1384SOL     OW 4150   3.180   1.909   1.479 -0.0179 -0.5837  0.0437
 1384SOL    HW1 4151   3.273   1.932   1.476 -0.7266  2.9866  0.7953
 1384SOL    HW2 4152   3.164   1.887   1.571 -0.1908  0.3128  0.2346
 1385SOL     OW 4153   2.632   3.442   0.549  0.4056 -0.3449 -0.3185
 1385SOL    HW1 4154   2.617   3.350   0.567  1.1725 -0.6054 -0.9711
 1385SOL    HW2 4155   2.668   3.477   0.631 -0.0037 -0.5857 -0.0308
 1386SOL     OW 4156   4.110   4.200   0.612 -0.3009 -0.3394  0.3590
 1386SOL    HW1 4157   4.150   4.153   0.686 -2.1331 -1.0284  0.9853
 1386SOL    HW2 4158   4.182   4.217   0.552  0.8974 -1.5870  1.3733
 1387SOL     OW 4159   3.539   2.804   2.707  0.2147 -0.1734 -0.5037
 1387SOL    HW1 4160   3.567   2.876   2.763  0.5671 -1.4116  0.9937
 1387SOL    HW2 4161   3.588   2.816   2.625 -0.1600  1.5627 -0.5059
 1388SOL     OW 4162   1.145   3.817   0.584  0.6137 -0.1332 -0.4331
 1388SOL    HW1 4163   1.167   3.786   0.672 -0.6519  1.6293  0.5469
 1388SOL    HW2 4164   1.222   3.868   0.557  0.5482  0.2763  0.1346
 1389SOL     OW 4165   1.663   3.103   4.159  0.2468 -0.2225  0.6806
 1389SOL    HW1 4166   1.739   3.092   4.217  0.2559 -1.9163  0.4052
 1389SOL    HW2 4167   1.616   3.020   4.166 -0.2944 -0.0864 -0.9829
 1390SOL     OW 4168   0.407   3.189   1.585  0.2527 -0.2705  0.6024
 1390SOL    HW1 4169   0.458   3.189   1.666  1.6719 -1.1435 -0.2424
 1390SOL    HW2 4170   0.472   3.197   1.516 -1.0215  1.8843 -0.4590
 1391SOL     OW 4171   0.957   4.011   2.354  0.2871 -0.1286  0.6703
 1391SOL    HW1 4172   0.997   3.944   2.410  2.1627 -0.5539 -1.0626
 1391SOL    HW2 4173   0.980   3.985   2.265  0.8407  2.6673 -0.0921
 1392SOL     OW 4174   2.816   3.250   1.982 -0.0634  0.0743 -0.1712
 1392SOL    HW1 4175   2.866   3.325   2.013 -0.9154  0.6060 -0.0402
 1392SOL    HW2 4176   2.766   3.284   1.908  0.2705 -0.6193 -0.7273
 1393SOL     OW 4177   1.196   1.987   3.388 -0.8658  0.0221  0.2157
 1393SOL    HW1 4178   1.242   1.965   3.307 -0.8817 -0.6143  0.3743
 1393SOL    HW2 4179   1.266   1.997   3.453 -0.8150  1.0296  0.0215
 1394SOL     OW 4180   2.856   3.162   2.364 -0.5691  0.1486  0.5553
 1394SOL    HW1 4181   2.923   3.228   2.382 -1.9845  2.1537 -1.0764
 1394SOL    HW2 4182   2.898   3.103   2.302  0.6361 -0.3997  1.8387
 1395SOL     OW 4183   2.812   3.417   4.356  0.9730  0.2219 -0.1914
 1395SOL    HW1 4184   2.843   3.472   4.428 -0.2080  2.1833 -1.0763
 1395SOL    HW2 4185   2.749   3.357   4.396  2.1485 -0.3978  0.7732
 1396SOL     OW 4186   3.276   0.182   4.230  0.2638  0.0540 -0.0229
 1396SOL    HW1 4187   3.181   0.169   4.232  0.2703  0.0292  0.3422
 1396SOL    HW2 4188   3.304   0.145   4.147 -0.1084  0.4805 -0.3399
 1397SOL     OW 4189   2.676   0.825   1.934 -0.1647  0.1028 -0.0554
 1397SOL    HW1 4190   2.763   0.856   1.909 -0.2526  0.9140  0.5872
 1397SOL    HW2 4191   2.637   0.899   1.980 -0.7609 -0.6424  0.6706
 1398SOL     OW 4192   2.142   1.856   3.812  0.0532  0.1975 -0.2173
 1398SOL    HW1 4193   2.137   1.950   3.799 -1.6700  0.2395  0.5605
 1398SOL    HW2 4194   2.105   1.841   3.899 -2.0416 -1.4145 -1.2884
 1399SOL     OW 4195   0.006   4.199   4.131  0.2817  0.0503 -0.3113
 1399SOL    HW1 4196   0.031   4.258   4.202 -1.9951  1.3451 -0.4921
 1399SOL    HW2 4197   0.005   4.254   4.053 -1.6264 -0.2105 -0.5317
 1400SOL     OW 4198   2.471   2.349   1.190 -0.3299 -0.4106 -0.1433
 1400SOL    HW1 4199   2.521   2.410   1.246  0.7244 -0.0686 -1.4068
 1400SOL    HW2 4200   2.479   2.265   1.234  2.0221 -0.5222 -0.6205
 1401SOL     OW 4201   1.275   3.867   1.003 -0.8331  0.0786 -0.3381
 1401SOL    HW1 4202   1.238   3.953   1.021  0.1829  0.6286 -0.7932
 1401SOL    HW2 4203   1.257   3.816   1.082  0.5784  1.4179  0.9092
 1402SOL     OW 4204   2.414   4.083   2.904 -0.2836 -0.3603 -0.4503
 1402SOL    HW1 4205   2.353   4.046   2.840 -1.1283  0.9805 -0.4602
 1402SOL    HW2 4206   2.365   4.154   2.945  0.4486 -0.8170  1.2837
 1403SOL     OW 4207   4.481   0.214   1.070  0.4976  0.0392 -0.6538
 1403SOL    HW1 4208   4.484   0.159   0.992 -0.5754 -1.6635  0.4474
 1403SOL    HW2 4209   4.503   0.155   1.142  1.1129  1.4840  0.3896
 1404SOL     OW 4210   0.105   3.494   1.455 -0.0279  0.2915  0.2699
 1404SOL    HW1 4211   0.129   3.571   1.507  0.3624  0.1200  0.3421
 1404SOL    HW2 4212   0.125   3.419   1.511  1.5172  0.0480 -0.5489
 1405SOL     OW 4213   4.505   1.168   2.445  0.0089 -0.1569 -0.2538
 1405SOL    HW1 4214   4.475   1.133   2.529 -0.0642  1.5631  0.4719
 1405SOL    HW2 4215   4.425   1.199   2.402  0.0259 -1.1622 -1.0572
 1406SOL     OW 4216   1.792   2.930   3.095  0.1955 -0.4171 -0.7589
 1406SOL    HW1 4217   1.798   2.915   3.189 -0.7989 -1.3084 -0.8193
 1406SOL    HW2 4218   1.882   2.919   3.063  0.7323  0.9382  0.2074
 1407SOL     OW 4219   1.520   3.363   3.030  0.1071 -0.1806  0.3297
 1407SOL    HW1 4220   1.487   3.388   3.116  0.0553  1.1635 -0.0637
 1407SOL    HW2 4221   1.593   3.304   3.048  0.6141  0.7179  1.3257
 1408SOL     OW 4222   1.106   0.146   0.571 -0.3542  0.2669 -0.5858
 1408SOL    HW1 4223   1.016   0.177   0.565 -0.0576  1.4384  0.5412
 1408SOL    HW2 4224   1.141   0.189   0.649  0.3501 -2.3175  0.6247
 1409SOL     OW 4225   4.111   1.609   2.693 -0.4370 -0.8034 -0.1422
 1409SOL    HW1 4226   4.096   1.531   2.747  1.0115 -0.8017  0.3240
 1409SOL    HW2 4227   4.128   1.679   2.756  1.8535 -0.9190 -0.5178
 1410SOL     OW 4228   1.508   2.205   2.138 -0.7573  0.0514  0.1452
 1410SOL    HW1 4229   1.427   2.207   2.086 -0.6420 -0.8200 -0.0926
 1410SOL    HW2 4230   1.545   2.118   2.120  0.5835  0.6947 -0.2736
 1411SOL     OW 4231   1.401   0.732   1.305  0.3342  0.8300  0.1832
 1411SOL    HW1 4232   1.335   0.690   1.251 -0.2888  2.5601 -0.4638
 1411SOL    HW2 4233   1.352   0.790   1.363  1.2346  1.9015 -0.0874
 1412SOL     OW 4234   1.742   2.954   0.059 -0.4210 -0.2389 -0.1843
 1412SOL    HW1 4235   1.796   2.878   0.077 -0.1998 -0.0440 -0.0118
 1412SOL    HW2 4236   1.685   2.962   0.136 -2.2124 -1.7044 -1.2621
 1413SOL     OW 4237   2.403   0.281   3.776 -0.0932 -0.2628 -0.6204
 1413SOL    HW1 4238   2.367   0.287   3.687 -0.4985  0.6837 -0.4025
 1413SOL    HW2 4239   2.449   0.364   3.789 -0.3581 -0.2408  0.1991
 1414SOL     OW 4240   0.090   2.990   1.110  0.1395 -0.1276 -0.1075
 1414SOL    HW1 4241   0.144   3.032   1.044 -0.1283  1.5191  0.6769
 1414SOL    HW2 4242   0.130   3.015   1.193 -0.4926 -0.7844  0.4125
 1415SOL     OW 4243   1.579   1.498   1.712  0.5841  0.1859  0.4128
 1415SOL    HW1 4244   1.581   1.589   1.680 -0.5614  0.2550  0.5129
 1415SOL    HW2 4245   1.504   1.458   1.668  3.1935 -1.8808 -2.6148
 1416SOL     OW 4246   0.917   2.654   0.188 -0.2200  0.5823  0.4426
 1416SOL    HW1 4247   0.943   2.628   0.100  0.8114  3.1329 -0.1061
 1416SOL    HW2 4248   0.888   2.573   0.230  0.1631 -0.8630 -1.9063
 1417SOL     OW 4249   3.699   3.035   1.690 -0.4938 -0.0156 -0.0045
 1417SOL    HW1 4250   3.776   2.986   1.661  0.2887  0.3700  1.3486
 1417SOL    HW2 4251   3.627   2.972   1.683  0.4105 -1.2734  1.2894
 1418SOL     OW 4252   3.642   1.643   0.735  0.2528  0.0497 -0.0498
 1418SOL    HW1 4253   3.674   1.572   0.679 -1.4503 -0.5077 -0.3731
 1418SOL    HW2 4254   3.722   1.685   0.768  1.3347 -2.3074  0.5522
 1419SOL     OW 4255   1.747   1.707   0.424 -0.1424 -0.5045 -0.3120
 1419SOL    HW1 4256   1.775   1.664   0.505 -1.6046 -0.9835 -0.0261
 1419SOL    HW2 4257   1.659   1.673   0.408 -0.3098  0.4223 -1.5141
 1420SOL     OW 4258   0.456   2.400   1.961 -0.0328 -0.5934  0.3415
 1420SOL    HW1 4259   0.529   2.414   2.021 -0.1944 -1.9615  0.8981
 1420SOL    HW2 4260   0.480   2.449   1.883  0.2507  1.1086  1.4527
 1421SOL     OW 4261   1.499   4.130   0.346 -0.0244  0.1921  0.1933
 1421SOL    HW1 4262   1.593   4.129   0.324 -0.0827  0.0756 -0.0567
 1421SOL    HW2 4263   1.464   4.203   0.295 -0.2327 -0.3200 -0.4241
 1422SOL     OW 4264   4.231   0.112   4.125  0.0143  0.2347 -0.0685
 1422SOL    HW1 4265   4.308   0.153   4.164  0.4490 -1.5039  1.0081
 1422SOL    HW2 4266   4.266   0.055   4.056 -0.4467  0.5286 -0.5526
 1423SOL     OW 4267   1.070   3.580   3.759 -0.3045 -0.1236 -0.2101
 1423SOL    HW1 4268   1.004   3.572   3.827  0.3994 -1.4008  0.3620
 1423SOL    HW2 4269   1.027   3.548   3.679 -1.0033  0.9946 -0.2874
 1424SOL     OW 4270   2.230   4.025   2.692  0.3904  0.1383  0.0353
 1424SOL    HW1 4271   2.140   4.012   2.720 -0.9790 -0.7402 -4.0952
 1424SOL    HW2 4272   2.267   3.936   2.689  0.3315  0.1407 -1.2288
 1425SOL     OW 4273   3.599   2.097   1.031 -0.3720 -0.3680 -0.6229
 1425SOL    HW1 4274   3.567   2.171   0.980  0.1011  0.1079 -0.2430
 1425SOL    HW2 4275   3.556   2.021   0.993  0.0736 -0.0422 -1.8149
 1426SOL     OW 4276   3.378   0.252   3.161  0.2749 -0.4542  0.1968
 1426SOL    HW1 4277   3.473   0.251   3.149  0.2285 -0.3635 -0.2011
 1426SOL    HW2 4278   3.359   0.171   3.209  0.5880 -0.3090  0.5620
 1427SOL     OW 4279   4.102   1.563   0.884  0.2295 -0.1591 -0.4805
 1427SOL    HW1 4280   4.030   1.625   0.871 -0.2727 -0.7176 -0.4132
 1427SOL    HW2 4281   4.062   1.476   0.875  0.7704 -0.4933  0.1735
 1428SOL     OW 4282   3.411   3.729   3.184 -0.0066  0.9163 -0.7276
 1428SOL    HW1 4283   3.435   3.821   3.200 -0.0816  1.0174 -1.1802
 1428SOL    HW2 4284   3.382   3.728   3.093  1.5490  0.1269 -1.2489
 1429SOL     OW 4285   1.257   0.918   2.081  0.1536  0.0280  0.0615
 1429SOL    HW1 4286   1.302   0.883   2.158  0.2854  0.0318 -0.0140
 1429SOL    HW2 4287   1.183   0.968   2.117 -0.1463 -0.4808  0.1614
 1430SOL     OW 4288   3.273   3.347   2.213 -0.0136  0.0697  0.2159
 1430SOL    HW1 4289   3.358   3.325   2.252  0.9509 -0.5076 -2.0433
 1430SOL    HW2 4290   3.262   3.440   2.229  1.5279  0.3592 -0.2646
 1431SOL     OW 4291   3.647   3.365   3.752 -0.1850 -0.3081 -0.3919
 1431SOL    HW1 4292   3.630   3.274   3.778  0.0508 -0.4292 -0.6615
 1431SOL    HW2 4293   3.731   3.362   3.707 -0.6204 -0.1226 -1.2550
 1432SOL     OW 4294   1.191   1.026   1.716  0.2403  0.1627 -0.2498
 1432SOL    HW1 4295   1.267   1.057   1.765 -0.5156  1.1280  0.3635
 1432SOL    HW2 4296   1.132   1.101   1.715 -0.8578 -0.6844 -0.4078
 1433SOL     OW 4297   2.041   0.321   1.436  0.5114  0.1455 -0.0921
 1433SOL    HW1 4298   2.049   0.273   1.353  0.9234 -0.7958  0.4829
 1433SOL    HW2 4299   2.066   0.410   1.413  2.0490 -0.4010 -0.6987
 1434SOL     OW 4300   2.914   0.293   1.058  0.2069  0.1285  0.3529
 1434SOL    HW1 4301   2.855   0.249   0.997 -0.0753 -0.1284  0.8042
 1434SOL    HW2 4302   2.861   0.309   1.136  0.1309  1.8132 -0.0039
 1435SOL     OW 4303   3.085   2.815   3.783 -0.5210  0.3303  0.4323
 1435SOL    HW1 4304   3.149   2.877   3.749  0.0609 -0.5044 -0.0141
 1435SOL    HW2 4305   3.038   2.784   3.706 -1.1215  0.5457  0.7036
 1436SOL     OW 4306   2.953   0.493   0.347  0.2478 -0.3004 -0.2267
 1436SOL    HW1 4307   2.922   0.550   0.276 -0.0834 -0.8749 -0.5450
 1436SOL    HW2 4308   2.874   0.472   0.396  0.1935 -1.3820 -0.7595
 1437SOL     OW 4309   1.292   3.424   3.812  0.1196 -0.1965 -0.2511
 1437SOL    HW1 4310   1.215   3.455   3.764  1.5418  1.5276 -1.5631
 1437SOL    HW2 4311   1.285   3.329   3.808 -2.0325 -0.0911 -0.1493
 1438SOL     OW 4312   3.404   4.446   0.451 -0.4363 -0.4461 -0.5428
 1438SOL    HW1 4313   3.436   4.422   0.537  0.3321 -0.9928 -0.9696
 1438SOL    HW2 4314   3.311   4.423   0.453 -0.6007  0.2619  0.3884
 1439SOL     OW 4315   2.460   1.025   3.927 -0.1020  0.3392 -0.4601
 1439SOL    HW1 4316   2.516   0.949   3.910  0.7172  0.7424  0.3923
 1439SOL    HW2 4317   2.390   1.018   3.861 -0.1656 -1.2601 -0.2577
 1440SOL     OW 4318   1.308   0.423   2.802 -0.0989 -0.1535 -0.1940
 1440SOL    HW1 4319   1.347   0.490   2.746 -0.4748 -0.0464 -0.3306
 1440SOL    HW2 4320   1.240   0.469   2.851 -0.0929 -0.3501 -0.0002
 1441SOL     OW 4321   1.622   2.699   3.053  0.4768  0.3522  0.0106
 1441SOL    HW1 4322   1.677   2.777   3.056  0.2656  0.5528 -0.9114
 1441SOL    HW2 4323   1.665   2.637   3.112  1.0585  0.9068  0.1795
 1442SOL     OW 4324   4.375   1.970   2.698 -0.2140 -0.7800  0.0190
 1442SOL    HW1 4325   4.294   1.972   2.748  1.3691  0.5064  2.8319
 1442SOL    HW2 4326   4.380   2.056   2.657  0.9775  0.3649  2.3249
 1443SOL     OW 4327   3.979   3.595   0.039  0.3068  0.6846  0.2876
 1443SOL    HW1 4328   3.974   3.537   0.115  2.2790  0.2349  0.1497
 1443SOL    HW2 4329   4.024   3.673   0.071 -2.0161  2.0743  0.3841
 1444SOL     OW 4330   2.146   3.658   3.173 -0.2546  0.6039  0.4768
 1444SOL    HW1 4331   2.191   3.660   3.089  3.3565 -0.6876  2.1721
 1444SOL    HW2 4332   2.119   3.748   3.189 -1.5064  0.7902 -2.1959
 1445SOL     OW 4333   2.578   2.068   2.934  0.0459 -0.4593  0.3187
 1445SOL    HW1 4334   2.494   2.095   2.898  0.1008 -0.6506  0.0425
 1445SOL    HW2 4335   2.557   2.022   3.015 -0.1828 -1.3856 -0.2548
 1446SOL     OW 4336   0.677   1.904   0.162 -0.0508 -0.6475  0.8395
 1446SOL    HW1 4337   0.665   1.817   0.200 -0.4860 -0.8043  0.3552
 1446SOL    HW2 4338   0.641   1.897   0.074  1.1296 -0.3434  0.3208
 1447SOL     OW 4339   3.002   0.879   0.153  0.2797  0.5339  0.4620
 1447SOL    HW1 4340   3.051   0.801   0.125 -0.0963  1.1045 -1.9896
 1447SOL    HW2 4341   3.060   0.952   0.133 -2.1122  1.4748 -4.9248
 1448SOL     OW 4342   3.470   0.383   1.634  0.8877  0.1217  0.2139
 1448SOL    HW1 4343   3.517   0.319   1.581  1.7257  0.6117  0.3526
 1448SOL    HW2 4344   3.514   0.382   1.718  0.1389  0.0182  0.6145
 1449SOL     OW 4345   1.443   0.647   2.682  0.0438 -0.4150 -0.2963
 1449SOL    HW1 4346   1.528   0.685   2.659  0.8695 -1.4178  1.0231
 1449SOL    HW2 4347   1.379   0.703   2.637  1.4175 -0.3517 -2.3069
 1450SOL     OW 4348   3.179   0.200   2.186  0.2685 -0.1981  0.1006
 1450SOL    HW1 4349   3.221   0.270   2.136 -0.2311 -1.0170 -1.5248
 1450SOL    HW2 4350   3.086   0.222   2.186  0.0381 -1.1054 -0.8755
 1451SOL     OW 4351   0.855   2.561   1.914  0.0610 -0.3534  0.3268
 1451SOL    HW1 4352   0.843   2.467   1.925 -1.6124 -0.1133  0.9080
 1451SOL    HW2 4353   0.889   2.591   1.999 -0.3060 -0.3180  0.4649
 1452SOL     OW 4354   1.756   2.322   3.571  0.3275  0.0708  0.1669
 1452SOL    HW1 4355   1.822   2.264   3.533 -0.0540 -0.7353  0.7400
 1452SOL    HW2 4356   1.731   2.282   3.654 -1.4057 -0.0234 -0.3536
 1453SOL     OW 4357   2.132   1.651   4.225  0.3357 -0.1289  0.2705
 1453SOL    HW1 4358   2.097   1.600   4.152 -0.8923  0.4226  0.4462
 1453SOL    HW2 4359   2.100   1.606   4.304  2.0060 -0.9689  0.5191
 1454SOL     OW 4360   0.772   3.897   3.989  0.2813 -0.0593 -0.6108
 1454SOL    HW1 4361   0.842   3.932   3.934 -0.8257  0.7988 -1.5223
 1454SOL    HW2 4362   0.798   3.806   4.007  1.3193  0.0673 -1.4146
 1455SOL     OW 4363   3.280   4.405   1.123 -0.3338  0.5226 -0.2254
 1455SOL    HW1 4364   3.199   4.455   1.114 -0.3274  0.4290 -0.9160
 1455SOL    HW2 4365   3.341   4.449   1.062 -0.2730 -0.2082 -0.7014
 1456SOL     OW 4366   0.365   1.728   4.434 -0.1857 -0.3362 -0.3139
 1456SOL    HW1 4367   0.424   1.672   4.486 -1.9275 -0.4986  1.5894
 1456SOL    HW2 4368   0.415   1.808   4.420  0.6266 -0.5823  0.9802
 1457SOL     OW 4369   4.118   4.174   4.204 -0.5933  0.3183 -0.0471
 1457SOL    HW1 4370   4.096   4.203   4.292 -1.2861 -0.7976  0.1704
 1457SOL    HW2 4371   4.176   4.098   4.217 -0.4397  0.3408 -0.5542
 1458SOL     OW 4372   3.331   1.744   2.800  0.4195  0.2846  0.6113
 1458SOL    HW1 4373   3.330   1.715   2.709 -2.2297  0.1159  0.6082
 1458SOL    HW2 4374   3.283   1.677   2.848 -0.4179  1.5702  1.6687
 1459SOL     OW 4375   1.134   0.870   3.183  0.2510  0.1859 -0.0265
 1459SOL    HW1 4376   1.114   0.903   3.096 -2.0726 -1.2277 -0.0958
 1459SOL    HW2 4377   1.210   0.813   3.170 -1.2631 -1.6071 -1.5532
 1460SOL     OW 4378   1.763   2.021   2.560 -0.0809  0.2497 -0.3850
 1460SOL    HW1 4379   1.807   1.939   2.539 -1.0902  0.0069 -1.6383
 1460SOL    HW2 4380   1.677   1.995   2.595  0.3898  0.7410  1.2628
 1461SOL     OW 4381   1.282   4.025   2.606  0.5017 -0.4448  0.0719
 1461SOL    HW1 4382   1.237   4.104   2.637 -0.8472  0.0577 -2.8182
 1461SOL    HW2 4383   1.216   3.978   2.556  2.3902 -1.1934 -1.8682
 1462SOL     OW 4384   2.790   0.866   3.028  0.3884  0.7443 -0.1906
 1462SOL    HW1 4385   2.786   0.775   2.998 -0.9561  0.7473 -0.0604
 1462SOL    HW2 4386   2.853   0.864   3.100  0.2264 -0.1181 -0.0576
 1463SOL     OW 4387   0.591   2.042   3.178  0.0574  0.9459  0.3828
 1463SOL    HW1 4388   0.535   2.120   3.174 -0.0332  0.8725  0.1936
 1463SOL    HW2 4389   0.662   2.061   3.117  1.6907  2.1550  2.5069
 1464SOL     OW 4390   1.871   0.595   0.180  0.0224  0.2682  0.3212
 1464SOL    HW1 4391   1.824   0.624   0.102  1.4866  1.5784 -0.1266
 1464SOL    HW2 4392   1.960   0.629   0.168  0.1803  0.8743  2.7680
 1465SOL     OW 4393   3.877   1.387   1.313 -0.0019 -0.2066 -0.2674
 1465SOL    HW1 4394   3.918   1.309   1.351  0.0800  0.3818  0.9051
 1465SOL    HW2 4395   3.949   1.448   1.301 -0.1595 -0.0842 -0.5964
 1466SOL     OW 4396   3.481   1.363   2.597 -0.0850 -0.2683 -0.3511
 1466SOL    HW1 4397   3.547   1.431   2.589  1.8517 -2.2052 -2.8634
 1466SOL    HW2 4398   3.524   1.293   2.646 -0.0097 -1.7536 -2.4281
 1467SOL     OW 4399   3.543   1.207   2.354  0.3264 -0.3987  0.1317
 1467SOL    HW1 4400   3.539   1.242   2.443  2.2668 -0.9231  0.4722
 1467SOL    HW2 4401   3.486   1.265   2.303 -0.2555  0.3490  1.5679
 1468SOL     OW 4402   3.843   3.832   1.127  0.4790  0.0104  0.6777
 1468SOL    HW1 4403   3.803   3.781   1.057 -3.2541  0.8985  1.9139
 1468SOL    HW2 4404   3.896   3.769   1.176 -2.3819 -2.3415  1.0264
 1469SOL     OW 4405   3.851   0.791   2.921 -0.5270  0.0864  0.1290
 1469SOL    HW1 4406   3.823   0.735   2.993 -1.6413  1.3151  0.7066
 1469SOL    HW2 4407   3.800   0.762   2.846 -0.6974 -0.0268  0.2880
 1470SOL     OW 4408   1.944   0.401   0.753 -0.5649  0.0342  0.1939
 1470SOL    HW1 4409   1.865   0.372   0.799 -0.8108  0.1721 -0.1372
 1470SOL    HW2 4410   2.007   0.331   0.768 -1.0303 -0.4950 -0.2760
 1471SOL     OW 4411   3.433   0.699   3.856  0.2600  0.1418 -0.2602
 1471SOL    HW1 4412   3.445   0.741   3.941 -0.7498  0.4085 -0.2375
 1471SOL    HW2 4413   3.384   0.762   3.804  3.9969  1.6219 -2.3838
 1472SOL     OW 4414   1.472   2.449   2.483 -0.0390  0.4207 -0.1734
 1472SOL    HW1 4415   1.493   2.536   2.517 -1.8315  0.6705  0.3937
 1472SOL    HW2 4416   1.553   2.399   2.493  1.2800  2.2112 -1.2481
 1473SOL     OW 4417   3.789   4.183   3.045 -0.0909 -0.2013  0.4398
 1473SOL    HW1 4418   3.826   4.182   2.957  1.0379  1.5583  0.8418
 1473SOL    HW2 4419   3.785   4.091   3.070  2.8812 -0.5967 -0.1503
 1474SOL     OW 4420   0.964   1.598   1.815  0.3300  0.3588  0.5140
 1474SOL    HW1 4421   0.881   1.609   1.769  0.3083 -2.6776 -0.3799
 1474SOL    HW2 4422   1.023   1.660   1.772  0.1635 -1.9158 -3.4349
 1475SOL     OW 4423   3.764   0.153   2.597  0.1660  0.0332  0.2011
 1475SOL    HW1 4424   3.774   0.195   2.682  2.4163  2.0124 -0.9428
 1475SOL    HW2 4425   3.698   0.205   2.552 -0.3835 -0.4886  0.3820
 1476SOL     OW 4426   1.634   1.797   0.975  0.2400 -0.0467 -0.0097
 1476SOL    HW1 4427   1.633   1.853   0.897  0.5600 -0.1352 -0.0773
 1476SOL    HW2 4428   1.551   1.749   0.971  0.3694 -0.2406 -0.4316
 1477SOL     OW 4429   0.997   2.218   3.737 -0.2880  0.4090 -0.1799
 1477SOL    HW1 4430   0.943   2.260   3.670  0.8870  0.6476 -1.0206
 1477SOL    HW2 4431   1.083   2.259   3.727 -0.2228  0.8544  1.8717
 1478SOL     OW 4432   3.890   3.797   1.873  0.1447 -0.3121 -0.2525
 1478SOL    HW1 4433   3.908   3.726   1.811 -2.1292 -0.5528 -0.7546
 1478SOL    HW2 4434   3.966   3.855   1.866  1.1266 -1.6538 -1.3373
 1479SOL     OW 4435   1.699   1.307  -0.007  0.1795 -0.0810  0.2293
 1479SOL    HW1 4436   1.708   1.396   0.028 -0.4626 -0.2675  0.8998
 1479SOL    HW2 4437   1.635   1.265   0.051 -1.1185 -0.3279 -1.3149
 1480SOL     OW 4438   4.412   1.438   0.396 -0.1367 -0.5781  0.4475
 1480SOL    HW1 4439   4.420   1.534   0.393 -0.9956 -0.5154 -0.0952
 1480SOL    HW2 4440   4.487   1.410   0.449  1.9833  0.1836 -1.8889
 1481SOL     OW 4441   3.163   1.133   0.517  0.0139 -0.0479 -0.3797
 1481SOL    HW1 4442   3.091   1.194   0.497 -1.0338 -0.6877  1.2705
 1481SOL    HW2 4443   3.242   1.184   0.500 -0.8355  1.6380  0.4732
 1482SOL     OW 4444   2.136   3.830   1.282 -0.2156 -0.8760  0.1908
 1482SOL    HW1 4445   2.139   3.882   1.201 -2.7616 -1.3887 -0.3282
 1482SOL    HW2 4446   2.043   3.815   1.297  0.1754 -0.7924  3.2784
 1483SOL     OW 4447   2.860   1.699   3.914 -0.2181  0.5657  0.8900
 1483SOL    HW1 4448   2.866   1.730   4.004  1.8273  0.8038  0.7265
 1483SOL    HW2 4449   2.927   1.748   3.867 -0.9592  0.1533 -0.6935
 1484SOL     OW 4450   3.700   0.813   2.687  0.1980  0.1085 -0.0759
 1484SOL    HW1 4451   3.629   0.793   2.625 -0.8505 -1.0827  1.4330
 1484SOL    HW2 4452   3.657   0.861   2.757  1.0234 -0.0210  0.5321
 1485SOL     OW 4453   2.837   0.014   2.320  0.7826  0.3127  0.1012
 1485SOL    HW1 4454   2.843   0.046   2.230 -1.2332  0.0595 -0.1859
 1485SOL    HW2 4455   2.888   0.077   2.372  1.0821  1.0763 -1.0853
 1486SOL     OW 4456   4.495   1.067   0.947  0.1818 -0.0714 -0.2404
 1486SOL    HW1 4457   4.407   1.049   0.912 -0.1342 -0.4975  0.7455
 1486SOL    HW2 4458   4.554   1.022   0.887 -0.1468  1.3720 -1.7278
 1487SOL     OW 4459   0.549   4.317   2.584  0.3678 -0.2670 -0.5294
 1487SOL    HW1 4460   0.643   4.297   2.588  0.2562 -0.5933  1.6225
 1487SOL    HW2 4461   0.545   4.412   2.577  0.8588 -0.1914  0.1554
 1488SOL     OW 4462   3.012   2.719   2.228 -0.4277 -0.2129  0.2367
 1488SOL    HW1 4463   3.072   2.674   2.168 -0.5256  0.1693 -0.1561
 1488SOL    HW2 4464   3.055   2.802   2.247 -0.7118 -0.0439  0.1493
 1489SOL     OW 4465   2.736   1.645   1.089 -0.1908 -0.5505 -0.1374
 1489SOL    HW1 4466   2.801   1.714   1.101 -0.7106 -0.1031  0.1675
 1489SOL    HW2 4467   2.787   1.564   1.080  0.3523 -0.8445  3.9224
 1490SOL     OW 4468   4.397   0.776   2.136  0.4827 -0.3570 -0.0566
 1490SOL    HW1 4469   4.457   0.826   2.193  0.1547  0.6332 -0.5517
 1490SOL    HW2 4470   4.446   0.697   2.114  0.7079 -0.6464  1.3993
 1491SOL     OW 4471   2.362   2.158   0.182 -0.4353  0.1842 -0.3147
 1491SOL    HW1 4472   2.440   2.212   0.196  0.2194 -0.6679 -0.6291
 1491SOL    HW2 4473   2.387   2.097   0.113 -0.5863 -1.6192  1.1444
 1492SOL     OW 4474   0.271   4.297   2.148 -0.0548 -0.3368 -0.0665
 1492SOL    HW1 4475   0.304   4.210   2.171 -0.7964 -0.8078 -0.7297
 1492SOL    HW2 4476   0.271   4.298   2.053  0.2110  0.5033 -0.0638
 1493SOL     OW 4477   4.247   2.965   2.884 -0.0052 -0.1017 -0.0999
 1493SOL    HW1 4478   4.232   2.882   2.928 -0.6279 -0.3247 -0.7206
 1493SOL    HW2 4479   4.201   2.957   2.801  0.7272  0.5067 -0.5740
 1494SOL     OW 4480   1.569   3.596   1.725 -0.1229  0.0615 -0.4787
 1494SOL    HW1 4481   1.547   3.515   1.678  0.9642  0.0898 -1.0832
 1494SOL    HW2 4482   1.614   3.565   1.804 -0.0897  0.0626 -0.4971
 1495SOL     OW 4483   4.227   2.299   3.352 -0.5044 -0.1202 -0.4364
 1495SOL    HW1 4484   4.221   2.356   3.275  1.3315 -0.9813 -1.2963
 1495SOL    HW2 4485   4.189   2.216   3.323 -0.6854 -0.1498 -0.1098
 1496SOL     OW 4486   2.606   1.725   0.606  0.1239 -0.4254  0.2160
 1496SOL    HW1 4487   2.523   1.762   0.577  0.5190  1.1623  0.9967
 1496SOL    HW2 4488   2.660   1.722   0.527 -0.6867 -1.5908 -0.3232
 1497SOL     OW 4489   3.720   4.478   1.433 -0.5151 -0.6670  0.3257
 1497SOL    HW1 4490   3.794   4.449   1.486 -0.1587 -0.3648 -0.0036
 1497SOL    HW2 4491   3.758   4.503   1.349 -1.1410 -1.7154 -0.2937
 1498SOL     OW 4492   2.604   0.798   4.015 -0.2783  0.1792  0.0700
 1498SOL    HW1 4493   2.598   0.703   4.022 -0.2004  0.0847 -1.0325
 1498SOL    HW2 4494   2.667   0.823   4.082  0.4896 -0.6539 -0.3285
 1499SOL     OW 4495   2.471   1.331   0.387  0.5608  0.4757 -0.0207
 1499SOL    HW1 4496   2.445   1.374   0.469 -2.1952 -0.3342 -0.3652
 1499SOL    HW2 4497   2.563   1.307   0.401  0.4530  1.1814  2.4715
 1500SOL     OW 4498   1.621   4.124   1.978  0.5344 -0.1567  0.8224
 1500SOL    HW1 4499   1.666   4.093   2.057  1.7429 -0.3689  0.0788
 1500SOL    HW2 4500   1.606   4.045   1.927 -0.9682 -0.1230  1.1767
 1501SOL     OW 4501   3.328   4.299   2.111  0.1199 -0.0371  0.1576
 1501SOL    HW1 4502   3.403   4.242   2.129 -0.3399 -0.6255  0.2375
 1501SOL    HW2 4503   3.307   4.284   2.019 -0.1146 -0.1385  0.2252
 1502SOL     OW 4504   2.533   1.417   3.346 -0.1136 -0.2658  0.1403
 1502SOL    HW1 4505   2.498   1.498   3.383 -1.2499 -1.0623  0.8751
 1502SOL    HW2 4506   2.527   1.428   3.252  0.0745  0.6383  0.2271
 1503SOL     OW 4507   3.576   0.231   3.687  0.1477 -0.1743 -0.0613
 1503SOL    HW1 4508   3.616   0.283   3.757 -0.7607  1.3742 -0.6292
 1503SOL    HW2 4509   3.544   0.152   3.731 -1.1563  1.1398  1.4755
 1504SOL     OW 4510   0.529   1.363   3.341 -0.0031 -0.1321 -0.2753
 1504SOL    HW1 4511   0.624   1.361   3.335  0.0722  2.3675 -0.7835
 1504SOL    HW2 4512   0.502   1.272   3.324  2.3190 -1.2850  1.5555
 1505SOL     OW 4513   0.648   3.178   3.243 -0.4046 -0.9070  0.5004
 1505SOL    HW1 4514   0.736   3.167   3.279 -0.5191 -3.6267  0.1427
 1505SOL    HW2 4515   0.653   3.141   3.155 -1.3905  1.0010 -0.4193
 1506SOL     OW 4516   0.376   2.867   1.384  0.1424 -0.6628 -0.0493
 1506SOL    HW1 4517   0.419   2.797   1.334 -0.3878 -0.0163 -1.4600
 1506SOL    HW2 4518   0.423   2.869   1.467  2.8097 -0.0813 -1.4400
 1507SOL     OW 4519   3.510   0.837   0.339  0.3127 -0.1555  0.8333
 1507SOL    HW1 4520   3.469   0.750   0.339  2.1196 -1.0477  0.9999
 1507SOL    HW2 4521   3.548   0.845   0.427  1.6556  0.0433  0.2556
 1508SOL     OW 4522   4.028   1.119   2.001 -0.0096  0.3939 -0.5235
 1508SOL    HW1 4523   4.000   1.081   1.918  0.6023 -2.4777  0.4834
 1508SOL    HW2 4524   4.105   1.069   2.027 -1.8773 -1.0171  3.1680
 1509SOL     OW 4525   2.943   4.148   0.838 -0.5811 -0.6393  0.2776
 1509SOL    HW1 4526   2.962   4.055   0.827  1.3010 -0.3229  0.4352
 1509SOL    HW2 4527   2.999   4.192   0.774 -0.7747  0.4205  0.8035
 1510SOL     OW 4528   4.248   2.539   0.843 -0.3379 -0.0404  0.2544
 1510SOL    HW1 4529   4.267   2.453   0.881  1.5472 -0.5433 -1.6382
 1510SOL    HW2 4530   4.167   2.527   0.794 -0.7291 -0.3976  0.9759
 1511SOL     OW 4531   2.007   1.665   2.012  0.5320  0.8206 -0.1134
 1511SOL    HW1 4532   1.941   1.673   1.943  2.1389 -0.1302 -1.8808
 1511SOL    HW2 4533   2.030   1.755   2.035 -0.3572  1.1532 -0.5022
 1512SOL     OW 4534   1.822   3.132   2.136  0.1423  0.3853 -0.2740
 1512SOL    HW1 4535   1.844   3.173   2.220  2.0542 -0.9707 -0.0390
 1512SOL    HW2 4536   1.884   3.059   2.128 -2.1961 -1.6531 -1.2648
 1513SOL     OW 4537   1.988   2.124   2.794  0.9883  0.3154 -0.5066
 1513SOL    HW1 4538   1.927   2.098   2.725 -0.2560  0.0932  0.6381
 1513SOL    HW2 4539   2.013   2.042   2.836  0.6544  0.5551  0.1768
 1514SOL     OW 4540   4.359   0.190   2.178 -0.0249  0.7125  0.4410
 1514SOL    HW1 4541   4.302   0.114   2.187 -1.5662  1.8195  0.4961
 1514SOL    HW2 4542   4.299   0.262   2.158  1.5002  1.7100 -0.7323
 1515SOL     OW 4543   2.972   2.585   3.423  0.7152  0.2217  0.1021
 1515SOL    HW1 4544   2.946   2.572   3.514 -2.2064  0.9744 -0.5212
 1515SOL    HW2 4545   2.889   2.585   3.374  2.0669  1.2631 -2.3780
 1516SOL     OW 4546   1.930   3.480   1.688 -0.8175 -0.1847  0.0233
 1516SOL    HW1 4547   1.897   3.541   1.622 -1.2196 -0.3829  0.0369
 1516SOL    HW2 4548   2.004   3.436   1.647 -0.5476  0.2829 -0.0006
 1517SOL     OW 4549   2.421   0.047   2.057 -0.0581 -1.0258 -0.3205
 1517SOL    HW1 4550   2.400   0.056   1.964 -1.6239  2.7905  0.2211
 1517SOL    HW2 4551   2.344   0.004   2.095  0.1790 -1.7240 -0.6103
 1518SOL     OW 4552   1.339   2.328   3.216 -0.3032  0.0482  0.5197
 1518SOL    HW1 4553   1.421   2.347   3.261 -0.9068 -1.8823  2.6435
 1518SOL    HW2 4554   1.272   2.330   3.285 -2.2395  2.2291 -1.2404
 1519SOL     OW 4555   1.073   1.997  -0.014 -0.8835  0.0147  0.0117
 1519SOL    HW1 4556   1.159   1.962  -0.040 -1.1663 -0.6190 -0.0733
 1519SOL    HW2 4557   1.053   1.953   0.068 -0.7960  0.7123  0.4122
 1520SOL     OW 4558   1.786   1.617   1.472 -0.5544 -0.5917  0.3388
 1520SOL    HW1 4559   1.726   1.674   1.520 -1.8849 -1.8646  0.2369
 1520SOL    HW2 4560   1.871   1.660   1.481 -1.4336  1.1997  0.5835
 1521SOL     OW 4561   1.677   1.074   2.471  0.7008 -0.0519 -0.2053
 1521SOL    HW1 4562   1.739   1.104   2.404 -0.2339  0.1052 -1.0153
 1521SOL    HW2 4563   1.637   1.154   2.505 -1.1978 -0.2541 -1.7939
 1522SOL     OW 4564   4.130   0.995   2.358 -0.1723 -0.4672 -0.1820
 1522SOL    HW1 4565   4.048   1.041   2.375  0.2090  0.2181 -0.1610
 1522SOL    HW2 4566   4.141   0.998   2.263  1.1340  1.8110 -0.0396
 1523SOL     OW 4567   2.560   2.293   0.633 -0.3007 -0.5616 -0.1423
 1523SOL    HW1 4568   2.598   2.362   0.579 -1.7172  1.2739  1.1042
 1523SOL    HW2 4569   2.602   2.303   0.719 -0.7088 -1.0801  0.1295
 1524SOL     OW 4570   0.307   1.180   1.333  0.1693  0.3235  0.5632
 1524SOL    HW1 4571   0.310   1.197   1.427 -1.0959  2.1695  0.3428
 1524SOL    HW2 4572   0.218   1.148   1.317  0.7073 -1.0307  0.1114
 1525SOL     OW 4573   3.289   2.180   1.253  0.5248  0.0938 -0.0999
 1525SOL    HW1 4574   3.207   2.179   1.205 -0.3788 -1.5710  1.3734
 1525SOL    HW2 4575   3.328   2.094   1.236  1.1159  0.2169  0.5884
 1526SOL     OW 4576   3.266   2.775   2.666  0.3254  0.0490  0.3737
 1526SOL    HW1 4577   3.345   2.804   2.712  0.3418 -0.6430  0.7877
 1526SOL    HW2 4578   3.269   2.822   2.582 -0.4247  2.4531  1.5851
 1527SOL     OW 4579   0.838   1.933   2.784 -0.0214  0.3220  0.2625
 1527SOL    HW1 4580   0.836   1.872   2.710 -1.1162 -1.5763  1.7655
 1527SOL    HW2 4581   0.808   2.016   2.747 -3.1761 -1.1870 -0.9708
 1528SOL     OW 4582   2.188   2.112   0.950  0.1637  0.4297  0.2864
 1528SOL    HW1 4583   2.105   2.102   0.996 -0.4838 -1.8908 -1.1798
 1528SOL    HW2 4584   2.241   2.038   0.981  0.4630  0.0357 -1.1069
 1529SOL     OW 4585   2.243   0.636   2.470  0.7690  0.3648  0.1927
 1529SOL    HW1 4586   2.166   0.693   2.473  0.9514  0.6050  0.3482
 1529SOL    HW2 4587   2.227   0.577   2.396  0.3588  0.3021  0.3305
 1530SOL     OW 4588   2.365   3.391   3.595  0.0127 -0.1670 -0.0768
 1530SOL    HW1 4589   2.353   3.385   3.501 -1.1066 -1.1805  0.1011
 1530SOL    HW2 4590   2.346   3.483   3.616  1.2107  0.2924 -0.9349
 1531SOL     OW 4591   2.484   0.946   0.489 -0.1762 -0.1197 -0.0671
 1531SOL    HW1 4592   2.420   0.949   0.559  0.2376 -2.5528  0.5046
 1531SOL    HW2 4593   2.554   1.005   0.517 -0.8302  0.3100  0.6852
 1532SOL     OW 4594   2.064   4.419   2.597 -0.1304  0.3823  0.8158
 1532SOL    HW1 4595   2.003   4.492   2.585 -0.0295  0.0358 -2.9977
 1532SOL    HW2 4596   2.149   4.453   2.568  0.2328 -0.8097  0.4124
 1533SOL     OW 4597   2.124   2.627   0.750  0.3878 -0.4086  0.8404
 1533SOL    HW1 4598   2.214   2.597   0.736  0.2022 -0.2718 -0.9510
 1533SOL    HW2 4599   2.080   2.552   0.789  0.6285 -1.5446 -0.9223
 1534SOL     OW 4600   2.835   0.601   2.957  0.2817 -0.1720  0.0636
 1534SOL    HW1 4601   2.910   0.569   3.008 -0.1457 -2.2090 -0.4768
 1534SOL    HW2 4602   2.797   0.522   2.919 -2.1027  0.7945  0.2485
 1535SOL     OW 4603   1.589   1.908   4.032  0.0625 -0.1491 -0.2715
 1535SOL    HW1 4604   1.585   1.815   4.013  0.3633 -0.1521 -0.3226
 1535SOL    HW2 4605   1.679   1.933   4.012  0.1475  0.0283  0.3101
 1536SOL     OW 4606   2.576   2.907   2.677 -0.0130 -0.2797 -0.3660
 1536SOL    HW1 4607   2.657   2.899   2.626  0.6804  1.0617  0.4532
 1536SOL    HW2 4608   2.538   2.991   2.649  0.5739  0.6771  1.4960
 1537SOL     OW 4609   1.042   2.581   0.831  0.6896 -0.7375 -0.5056
 1537SOL    HW1 4610   1.016   2.601   0.921  0.0695  0.1474 -0.8593
 1537SOL    HW2 4611   1.123   2.629   0.818  1.3837 -1.7558 -0.0872
 1538SOL     OW 4612   3.274   2.127   2.663 -0.3157  0.1631  0.0817
 1538SOL    HW1 4613   3.238   2.146   2.750  0.2869 -1.7453  0.8042
 1538SOL    HW2 4614   3.268   2.210   2.616 -3.5091  0.5113  0.8919
 1539SOL     OW 4615   3.360   2.126   1.742  0.0810 -0.1265  0.1277
 1539SOL    HW1 4616   3.332   2.147   1.653 -1.3915  0.5004  0.7115
 1539SOL    HW2 4617   3.337   2.034   1.753 -1.5108  0.2844  0.4764
 1540SOL     OW 4618   2.594   0.143   1.766  0.4743  0.6615  0.2509
 1540SOL    HW1 4619   2.685   0.113   1.762  1.1988  2.8275 -1.0591
 1540SOL    HW2 4620   2.587   0.186   1.851  0.1954 -0.7204  0.9735
 1541SOL     OW 4621   2.721   0.950   4.212  0.7340 -0.5146 -0.0730
 1541SOL    HW1 4622   2.813   0.922   4.212  1.0373  0.2078 -2.8105
 1541SOL    HW2 4623   2.725   1.045   4.226  0.5594 -0.2605 -1.5741
 1542SOL     OW 4624   0.477   3.794   2.215 -0.4964  0.2119  0.1343
 1542SOL    HW1 4625   0.566   3.798   2.248  0.1947  2.3046 -1.6991
 1542SOL    HW2 4626   0.446   3.707   2.238  2.1038 -0.6590  0.6259
 1543SOL     OW 4627   1.047   1.281   1.731  0.5992  0.0249  0.0655
 1543SOL    HW1 4628   0.955   1.307   1.724 -0.3250 -2.6688  0.9263
 1543SOL    HW2 4629   1.071   1.301   1.822  0.3278 -0.7385  0.3145
 1544SOL     OW 4630   3.250   3.188   0.102 -0.1642  0.5863 -0.0236
 1544SOL    HW1 4631   3.296   3.123   0.155  0.9484 -0.2332 -1.9365
 1544SOL    HW2 4632   3.271   3.272   0.143 -0.2410 -0.0909  1.4634
 1545SOL     OW 4633   1.005   1.395   3.798 -0.3866 -0.1279  0.4172
 1545SOL    HW1 4634   0.938   1.364   3.859 -0.0529 -2.5266 -0.3346
 1545SOL    HW2 4635   1.068   1.323   3.794  0.9059  1.0362 -0.8216
 1546SOL     OW 4636   0.467   1.203   2.446  0.0675  0.2044 -0.3160
 1546SOL    HW1 4637   0.419   1.269   2.496 -1.1085 -0.3784 -0.6152
 1546SOL    HW2 4638   0.402   1.133   2.432  0.2453  0.4598 -2.8727
 1547SOL     OW 4639   1.755   1.047   4.371  0.4051 -0.0052  0.2889
 1547SOL    HW1 4640   1.737   0.979   4.436  1.0271  1.4692  2.0904
 1547SOL    HW2 4641   1.723   1.128   4.411  1.6941  1.1020 -0.8127
 1548SOL     OW 4642   0.981   0.888   0.813  0.0055  0.2803  0.2714
 1548SOL    HW1 4643   0.902   0.943   0.816  0.1689  0.8175 -2.5285
 1548SOL    HW2 4644   0.948   0.800   0.794  0.0566  0.4252 -0.4875
 1549SOL     OW 4645   2.804   0.291   3.565 -0.6726  0.1489 -0.3152
 1549SOL    HW1 4646   2.897   0.288   3.587 -0.8425 -1.6352  0.3690
 1549SOL    HW2 4647   2.760   0.265   3.646 -1.7093  0.0612 -0.8897
 1550SOL     OW 4648   3.885   1.323   3.612 -0.0427 -0.1388  0.3259
 1550SOL    HW1 4649   3.958   1.261   3.615 -0.4125 -0.5659  0.6014
 1550SOL    HW2 4650   3.886   1.366   3.697  0.2188  0.2437  0.1317
 1551SOL     OW 4651   0.928   0.549   0.154  0.3137 -0.1649 -0.0950
 1551SOL    HW1 4652   0.955   0.463   0.121 -1.7506 -0.5883 -0.8781
 1551SOL    HW2 4653   0.868   0.529   0.226  0.3349  0.6332  0.1473
 1552SOL     OW 4654   0.610   4.235   0.850  0.0015 -0.2002  0.4075
 1552SOL    HW1 4655   0.683   4.175   0.864 -0.2886 -0.6845 -0.0979
 1552SOL    HW2 4656   0.532   4.178   0.850 -0.2428  0.1268 -0.4566
 1553SOL     OW 4657   2.257   1.140   0.990  0.5304  0.1828 -0.1686
 1553SOL    HW1 4658   2.321   1.204   0.959  0.8936  0.1594  0.4961
 1553SOL    HW2 4659   2.236   1.169   1.079 -0.7166  0.4366 -0.5290
 1554SOL     OW 4660   1.729   1.528   2.846 -0.6600 -0.2335 -0.4345
 1554SOL    HW1 4661   1.725   1.489   2.933 -0.1136  0.1334 -0.2423
 1554SOL    HW2 4662   1.804   1.587   2.849  0.1815 -1.2124 -1.5651
 1555SOL     OW 4663   4.186   2.928   1.274 -0.4397 -0.1396  0.0109
 1555SOL    HW1 4664   4.122   2.971   1.332 -1.1616 -1.9145  0.5914
 1555SOL    HW2 4665   4.148   2.842   1.256  1.2722 -0.8206 -0.5563
 1556SOL     OW 4666   0.256   3.546   2.913 -0.1587 -0.0134 -0.6148
 1556SOL    HW1 4667   0.274   3.507   2.828  1.0095  0.8073 -0.7744
 1556SOL    HW2 4668   0.246   3.472   2.972 -0.6466 -0.5871 -1.3967
 1557SOL     OW 4669   0.965   4.093   3.868 -0.4672  0.2989  0.0940
 1557SOL    HW1 4670   0.941   4.086   3.776  1.1388  0.6563 -0.3818
 1557SOL    HW2 4671   1.022   4.169   3.872  0.2236 -0.2586  1.2188
 1558SOL     OW 4672   1.621   2.643   0.611 -0.4441  0.8123 -0.0398
 1558SOL    HW1 4673   1.646   2.729   0.577 -0.7022  0.0339 -2.4452
 1558SOL    HW2 4674   1.535   2.627   0.572 -0.3948 -0.5465  0.3589
 1559SOL     OW 4675   3.625   0.508   2.706 -0.0642 -0.3407  0.0492
 1559SOL    HW1 4676   3.719   0.519   2.692 -0.3798 -0.4301 -2.5495
 1559SOL    HW2 4677   3.585   0.585   2.666 -1.2232 -1.7682 -1.7231
 1560SOL     OW 4678   3.672   0.385   0.685 -0.0525 -0.1080 -0.1265
 1560SOL    HW1 4679   3.767   0.397   0.681 -0.2211  1.7694  0.6108
 1560SOL    HW2 4680   3.644   0.436   0.761 -1.5759 -1.2902  0.1497
 1561SOL     OW 4681   2.935   3.183   0.505  0.5307  0.5581  0.2820
 1561SOL    HW1 4682   2.878   3.178   0.428  1.2930 -0.9800 -0.2222
 1561SOL    HW2 4683   2.939   3.093   0.537  1.0576  1.0052  1.5237
 1562SOL     OW 4684   3.032   0.078   2.869  0.5570 -0.2246  0.1062
 1562SOL    HW1 4685   3.075   0.145   2.922  0.0691  0.1755  0.0043
 1562SOL    HW2 4686   3.091   0.003   2.872  1.7626  0.6489 -0.8489
 1563SOL     OW 4687   1.724   3.416   4.255 -0.0626 -0.4954  0.4124
 1563SOL    HW1 4688   1.755   3.386   4.170 -0.2626 -1.4052  0.6554
 1563SOL    HW2 4689   1.633   3.389   4.259 -0.3144  0.3375  0.5582
 1564SOL     OW 4690   4.481   3.010   1.773 -0.4055  0.0259  0.2657
 1564SOL    HW1 4691   4.444   2.922   1.778 -1.2457  0.0347 -3.1129
 1564SOL    HW2 4692   4.412   3.068   1.804 -0.9687 -0.3606 -0.2443
 1565SOL     OW 4693   4.492   0.740   0.535 -0.3042  0.1131 -0.2868
 1565SOL    HW1 4694   4.540   0.811   0.579  1.0848 -0.7628 -0.3205
 1565SOL    HW2 4695   4.432   0.785   0.476  0.7365  1.2862 -0.5126
 1566SOL     OW 4696   0.676   0.723   2.840  0.4029 -0.0788  0.2667
 1566SOL    HW1 4697   0.735   0.694   2.909 -0.6667 -1.4845  0.6364
 1566SOL    HW2 4698   0.615   0.782   2.884 -1.0102 -1.8829  0.8640
 1567SOL     OW 4699   4.305   3.805   2.417  0.2017  0.0310 -0.1608
 1567SOL    HW1 4700   4.261   3.874   2.467  1.4516  0.9180 -0.2295
 1567SOL    HW2 4701   4.276   3.818   2.327 -0.8032 -0.5458  0.0769
 1568SOL     OW 4702   4.248   4.362   2.227 -0.7729 -0.4596  0.1421
 1568SOL    HW1 4703   4.158   4.352   2.197 -0.6299  0.2576 -0.5568
 1568SOL    HW2 4704   4.282   4.272   2.232 -1.3223 -0.6904 -0.2386
 1569SOL     OW 4705   2.851   1.060   3.902 -0.2678  0.4285 -0.0450
 1569SOL    HW1 4706   2.807   1.098   3.978  1.6905  1.7249  0.5125
 1569SOL    HW2 4707   2.886   0.976   3.933 -0.3561  0.4747  0.1822
 1570SOL     OW 4708   0.932   0.851   3.525  0.8241  0.2484 -0.2644
 1570SOL    HW1 4709   0.937   0.823   3.434  1.1791  0.1511 -0.2165
 1570SOL    HW2 4710   0.919   0.770   3.575  0.6376  0.3003 -0.2259
 1571SOL     OW 4711   0.195   3.699   1.609  0.4893  0.4004  0.6200
 1571SOL    HW1 4712   0.213   3.709   1.703  2.1953  1.4083  0.2244
 1571SOL    HW2 4713   0.268   3.646   1.576 -0.9643 -1.3681  0.1216
 1572SOL     OW 4714   1.006   4.150   2.111  0.1806 -0.1190  0.5073
 1572SOL    HW1 4715   1.011   4.185   2.200  1.2650 -0.8093  0.7319
 1572SOL    HW2 4716   1.097   4.138   2.085 -0.1404 -0.5360 -0.4552
 1573SOL     OW 4717   3.138   1.600   0.894  0.4496 -0.3239  0.3009
 1573SOL    HW1 4718   3.173   1.549   0.967  1.7644  1.4114  0.9313
 1573SOL    HW2 4719   3.214   1.640   0.852 -0.3972 -0.1708 -1.1902
 1574SOL     OW 4720   2.307   4.459   4.372  0.2239 -0.3958 -0.9162
 1574SOL    HW1 4721   2.305   4.470   4.276  0.4551 -0.3295 -0.9146
 1574SOL    HW2 4722   2.216   4.445   4.396 -0.2082  2.0905 -0.8507
 1575SOL     OW 4723   1.728   0.537   3.166 -0.0852 -0.1878 -0.5195
 1575SOL    HW1 4724   1.740   0.487   3.085 -2.5562  1.1176 -1.8314
 1575SOL    HW2 4725   1.634   0.531   3.184  0.4524 -0.9282  2.6791
 1576SOL     OW 4726   0.872   0.327   0.864  0.0548  0.3914  0.2962
 1576SOL    HW1 4727   0.831   0.310   0.949  1.3735 -0.7882  0.7352
 1576SOL    HW2 4728   0.847   0.253   0.810 -0.1456  0.7525 -0.1109
 1577SOL     OW 4729   1.569   1.667   0.657  0.1555 -0.0025  0.0436
 1577SOL    HW1 4730   1.572   1.762   0.672  1.4148 -0.1001  0.4721
 1577SOL    HW2 4731   1.568   1.629   0.744 -0.0044 -0.4040 -0.1318
 1578SOL     OW 4732   1.659   0.895   0.399 -0.1952 -0.3304 -0.5538
 1578SOL    HW1 4733   1.653   0.807   0.435 -4.1067 -0.1897 -0.4485
 1578SOL    HW2 4734   1.636   0.885   0.307  0.1423  0.5185 -0.7418
 1579SOL     OW 4735   1.293   3.810   3.248 -0.0072  0.0676 -0.1185
 1579SOL    HW1 4736   1.219   3.796   3.307 -0.1145 -0.7877 -0.4464
 1579SOL    HW2 4737   1.277   3.895   3.209  0.2810  0.8570  1.3988
 1580SOL     OW 4738   0.018   3.531   0.809 -0.1852  0.3738  0.1254
 1580SOL    HW1 4739   0.098   3.574   0.775 -0.2089 -0.1037 -0.5505
 1580SOL    HW2 4740  -0.049   3.599   0.803 -0.4294  0.0159 -1.7792
 1581SOL     OW 4741   2.144   3.989   4.183 -0.6449  0.3132 -0.0150
 1581SOL    HW1 4742   2.094   3.935   4.122  0.1094 -0.2972 -0.1087
 1581SOL    HW2 4743   2.193   3.926   4.236 -1.3553  0.8327  1.2918
 1582SOL     OW 4744   1.714   1.519   0.154 -0.0581  0.6426 -0.4349
 1582SOL    HW1 4745   1.798   1.553   0.185 -0.4652  0.4767  0.9105
 1582SOL    HW2 4746   1.660   1.596   0.141  0.2201  0.7355 -1.0998
 1583SOL     OW 4747   1.711   2.244   1.889 -0.3240 -0.5476 -0.1041
 1583SOL    HW1 4748   1.643   2.199   1.837 -1.2532  0.6260  0.0508
 1583SOL    HW2 4749   1.725   2.187   1.965 -0.3945 -1.3030 -0.6510
 1584SOL     OW 4750   4.377   2.750   1.746  0.3609 -0.2632 -0.0240
 1584SOL    HW1 4751   4.415   2.662   1.743  0.1981 -0.3293 -0.1289
 1584SOL    HW2 4752   4.345   2.765   1.658 -1.1992 -0.7964  0.4222
 1585SOL     OW 4753   3.809   0.318   0.282  0.8042  0.4693  0.0035
 1585SOL    HW1 4754   3.742   0.280   0.226  1.2180 -2.0007  1.0627
 1585SOL    HW2 4755   3.766   0.394   0.322  0.4456  2.2933 -3.3926
 1586SOL     OW 4756   0.396   3.444   3.704  0.3924  0.1605 -0.1829
 1586SOL    HW1 4757   0.397   3.352   3.679  0.5245  0.2294 -0.4301
 1586SOL    HW2 4758   0.391   3.443   3.800 -0.0728 -0.1002 -0.2103
 1587SOL     OW 4759   1.749   0.638   3.909 -0.2817  0.9119 -0.0188
 1587SOL    HW1 4760   1.691   0.687   3.851 -2.3883 -1.3088  0.0882
 1587SOL    HW2 4761   1.700   0.628   3.990  0.7581  0.0422  0.5338
 1588SOL     OW 4762   3.562   0.939   2.884  0.0908  1.1063 -0.0251
 1588SOL    HW1 4763   3.609   1.000   2.941 -1.7311  2.3188  0.2550
 1588SOL    HW2 4764   3.485   0.913   2.934 -0.2236  0.1744 -0.9527
 1589SOL     OW 4765   1.735   0.823   2.076  0.1924  0.2249  0.2864
 1589SOL    HW1 4766   1.803   0.850   2.138  0.7761  0.3246 -0.3845
 1589SOL    HW2 4767   1.783   0.784   2.003 -0.5763 -1.4803  0.6569
 1590SOL     OW 4768   3.316   1.604   1.193 -0.4950 -0.1485  0.2406
 1590SOL    HW1 4769   3.386   1.641   1.140  0.5581 -2.2631  0.0736
 1590SOL    HW2 4770   3.295   1.521   1.151 -2.9059  0.2514  0.4923
 1591SOL     OW 4771   3.692   0.745   3.718 -0.1886  0.1956 -0.1188
 1591SOL    HW1 4772   3.598   0.750   3.739 -0.3964 -0.9506 -0.6809
 1591SOL    HW2 4773   3.730   0.694   3.790  0.1314  1.2105  0.4465
 1592SOL     OW 4774   2.573   4.293   2.148  0.2560  0.3728  0.0308
 1592SOL    HW1 4775   2.544   4.379   2.119  1.7570  1.6346  2.0404
 1592SOL    HW2 4776   2.650   4.310   2.202 -0.7497 -1.9979  2.4636
 1593SOL     OW 4777   4.232   0.113   3.498  0.2787  0.1989  0.1101
 1593SOL    HW1 4778   4.282   0.174   3.553 -1.5064  1.6351  0.1992
 1593SOL    HW2 4779   4.187   0.168   3.434  1.0070 -1.3066 -1.8122
 1594SOL     OW 4780   2.366   1.854   0.934 -0.8040 -0.3270  1.2112
 1594SOL    HW1 4781   2.342   1.844   1.026  0.0991  0.3128  1.5278
 1594SOL    HW2 4782   2.426   1.781   0.917 -1.4183 -0.7881  0.9508
 1595SOL     OW 4783   1.614   3.313   4.005  0.5643  0.7113 -0.4686
 1595SOL    HW1 4784   1.699   3.281   3.976  0.9956 -0.1836  1.6672
 1595SOL    HW2 4785   1.564   3.235   4.027 -0.8323  1.2245 -1.6207
 1596SOL     OW 4786   2.775   4.259   4.290  0.7222  0.3429 -0.1647
 1596SOL    HW1 4787   2.754   4.168   4.269 -0.8420  0.5726  0.3014
 1596SOL    HW2 4788   2.800   4.258   4.382  0.9053  0.3722 -0.2120
 1597SOL     OW 4789   1.570   0.558   1.696  0.7242 -0.0242  0.0084
 1597SOL    HW1 4790   1.533   0.645   1.710  0.3335 -0.2193  0.1862
 1597SOL    HW2 4791   1.665   0.573   1.698  0.6641  0.4668 -0.4004
 1598SOL     OW 4792   4.297   2.029   2.029  0.3092  0.0603  0.1234
 1598SOL    HW1 4793   4.370   2.082   2.061 -0.6505  2.0257 -0.7487
 1598SOL    HW2 4794   4.220   2.065   2.073 -1.2129  3.3692 -4.4633
 1599SOL     OW 4795   1.423   1.615   4.085  0.4664 -0.0980  1.3057
 1599SOL    HW1 4796   1.368   1.586   4.012  1.4782  3.8049 -1.3388
 1599SOL    HW2 4797   1.362   1.646   4.151 -0.5016 -0.4019  0.5661
 1600SOL     OW 4798   2.197   0.522   0.099  0.2513 -0.1355  0.0645
 1600SOL    HW1 4799   2.210   0.599   0.153  2.6266 -0.1363 -0.3725
 1600SOL    HW2 4800   2.265   0.529   0.031 -1.2517 -1.2083 -1.6450
 1601SOL     OW 4801   0.129   0.584   0.370  0.2047  0.5724  0.0621
 1601SOL    HW1 4802   0.156   0.658   0.315  0.1024  0.3653 -0.2686
 1601SOL    HW2 4803   0.128   0.620   0.458  2.1340  0.4478  0.1712
 1602SOL     OW 4804   0.172   2.290   3.485 -0.0282  0.0442  0.2971
 1602SOL    HW1 4805   0.183   2.200   3.454 -0.4348  0.2197 -0.3950
 1602SOL    HW2 4806   0.078   2.307   3.477 -0.0844  0.2437  1.2662
 1603SOL     OW 4807   2.562   1.050   0.879 -0.1644  0.0363  0.0036
 1603SOL    HW1 4808   2.578   0.963   0.842 -0.7370 -0.0904  0.0302
 1603SOL    HW2 4809   2.642   1.072   0.925  0.3468 -0.0574 -0.8165
 1604SOL     OW 4810   0.673   2.785   2.712 -0.0135 -0.2337 -0.7469
 1604SOL    HW1 4811   0.681   2.698   2.750  1.1960  0.1765 -0.0168
 1604SOL    HW2 4812   0.748   2.793   2.653 -0.2904  0.1968 -1.0485
 1605SOL     OW 4813   2.211   4.385   0.958 -0.0415  0.1507 -0.3089
 1605SOL    HW1 4814   2.281   4.413   0.899  1.6720 -1.9515  0.5873
 1605SOL    HW2 4815   2.179   4.304   0.919 -0.2848 -0.1923  0.5931
 1606SOL     OW 4816   2.421   3.468   1.390  0.5197  0.1206 -0.1166
 1606SOL    HW1 4817   2.387   3.546   1.435 -0.0384  0.0846 -0.4572
 1606SOL    HW2 4818   2.422   3.493   1.298  1.8234  0.2576 -0.0838
 1607SOL     OW 4819   0.847   2.196   2.315  0.0511 -0.3159 -0.0102
 1607SOL    HW1 4820   0.940   2.205   2.337 -0.1356 -0.3222  0.7771
 1607SOL    HW2 4821   0.835   2.102   2.302  0.2653 -0.2658 -0.6493
 1608SOL     OW 4822   2.446   0.574   3.776 -0.0949 -0.2415 -0.4752
 1608SOL    HW1 4823   2.384   0.629   3.824 -0.0141  1.6900 -2.4759
 1608SOL    HW2 4824   2.521   0.564   3.836 -0.9109  0.2033  0.6472
 1609SOL     OW 4825   3.879   0.578   3.949  0.1589 -0.3726  0.0830
 1609SOL    HW1 4826   3.901   0.571   4.042 -0.6299  0.9112  0.3854
 1609SOL    HW2 4827   3.959   0.613   3.909  0.8487 -1.8794  0.0911
 1610SOL     OW 4828   0.563   0.962   1.840 -0.1281 -0.6107  0.4865
 1610SOL    HW1 4829   0.657   0.955   1.852 -0.0511 -1.2839 -0.4316
 1610SOL    HW2 4830   0.552   0.994   1.750 -0.7472  1.0329  1.1095
 1611SOL     OW 4831   2.968   2.068   2.364  0.4321  0.0609 -0.7372
 1611SOL    HW1 4832   2.910   2.098   2.295  0.4422  2.0535  0.0540
 1611SOL    HW2 4833   2.947   2.124   2.439  0.0470 -2.3542  1.0811
 1612SOL     OW 4834   0.775   4.000   0.989 -0.7388 -0.7009  0.0582
 1612SOL    HW1 4835   0.688   3.971   1.015  0.0879 -0.1403  4.1861
 1612SOL    HW2 4836   0.833   3.926   1.011  0.0707 -0.2663 -0.5478
 1613SOL     OW 4837   4.032   2.110   0.859  0.6473 -0.2617 -0.1043
 1613SOL    HW1 4838   3.972   2.037   0.876 -0.0283  0.3874  0.3234
 1613SOL    HW2 4839   4.046   2.107   0.765 -0.4194 -0.1570 -0.2845
 1614SOL     OW 4840   2.888   1.076   0.804  0.4984  0.2837  0.2249
 1614SOL    HW1 4841   2.863   1.098   0.894 -0.7730  0.2667 -0.0996
 1614SOL    HW2 4842   2.919   0.986   0.810 -0.0909  0.0945  0.5715
 1615SOL     OW 4843   1.114   3.099   3.940 -0.2881 -0.6284  0.0080
 1615SOL    HW1 4844   1.199   3.090   3.897  0.0350  1.0774  0.2306
 1615SOL    HW2 4845   1.053   3.056   3.881  0.5415 -0.7495 -0.7885
 1616SOL     OW 4846   3.138   1.450   3.979 -0.5074  0.3185 -0.0004
 1616SOL    HW1 4847   3.083   1.490   3.912 -0.5646  0.6841  0.2622
 1616SOL    HW2 4848   3.192   1.387   3.931 -1.3400 -0.2434 -0.2214
 1617SOL     OW 4849   4.108   0.755   3.844  0.6133 -0.0003 -0.1786
 1617SOL    HW1 4850   4.198   0.770   3.872  0.1446  1.9097  0.4682
 1617SOL    HW2 4851   4.108   0.778   3.751  1.0505 -1.3288 -0.5325
 1618SOL     OW 4852   1.825   1.816   3.833 -0.6451  0.9695  0.0243
 1618SOL    HW1 4853   1.778   1.753   3.887 -1.9042  0.0137 -2.0554
 1618SOL    HW2 4854   1.917   1.791   3.840 -1.0638 -0.8271 -0.3412
 1619SOL     OW 4855   0.076   2.190   2.017 -0.1018  0.2204 -0.1759
 1619SOL    HW1 4856   0.014   2.234   2.074  0.9553  2.2152 -0.4687
 1619SOL    HW2 4857   0.056   2.223   1.929  0.2866 -0.4109 -0.5090
 1620SOL     OW 4858   1.382   3.034   3.040  0.3273  0.5200 -0.0812
 1620SOL    HW1 4859   1.344   3.108   2.992  2.8910  1.3715 -0.9734
 1620SOL    HW2 4860   1.458   3.007   2.987  1.5323 -0.4473  1.9949
 1621SOL     OW 4861   3.910   4.210   3.872  0.1504  0.0966 -0.2394
 1621SOL    HW1 4862   3.978   4.272   3.847  0.5738 -0.0707  0.4832
 1621SOL    HW2 4863   3.831   4.263   3.883  0.2627  0.3527 -0.6571
 1622SOL     OW 4864   3.164   1.128   3.910  0.0324  0.0468 -0.0185
 1622SOL    HW1 4865   3.120   1.117   3.994 -0.3546 -0.2044 -0.2474
 1622SOL    HW2 4866   3.093   1.131   3.846  0.3218  0.2497 -0.3372
 1623SOL     OW 4867   1.864   3.811   1.284  0.4064  0.3389 -0.0915
 1623SOL    HW1 4868   1.807   3.862   1.341  1.1112  0.1097  0.8409
 1623SOL    HW2 4869   1.812   3.795   1.206 -1.0476 -0.4402  1.0014
 1624SOL     OW 4870   1.121   1.699   3.744 -0.2218  0.0381 -0.5589
 1624SOL    HW1 4871   1.161   1.762   3.804 -0.8902 -1.3622  1.4532
 1624SOL    HW2 4872   1.080   1.753   3.677  0.0211  1.7204  0.5778
 1625SOL     OW 4873   1.971   2.137   3.477  0.3522 -0.0485 -0.1664
 1625SOL    HW1 4874   2.067   2.139   3.480  0.4330  0.9564 -2.0059
 1625SOL    HW2 4875   1.951   2.082   3.402 -0.5356 -0.5267  0.4102
 1626SOL     OW 4876   0.810   4.050   1.626 -0.0247 -0.5598  0.2635
 1626SOL    HW1 4877   0.794   4.143   1.607  2.8504 -0.0445 -0.1905
 1626SOL    HW2 4878   0.819   4.047   1.721 -2.3579 -0.8465  0.5148
 1627SOL     OW 4879   2.942   2.529   3.673  0.0036 -0.3439 -0.6502
 1627SOL    HW1 4880   3.034   2.550   3.688 -0.3539  0.2014  0.9932
 1627SOL    HW2 4881   2.910   2.499   3.758 -1.7019  0.9847 -0.7622
 1628SOL     OW 4882   1.180   0.545   2.379  0.0104 -0.3115  0.1646
 1628SOL    HW1 4883   1.138   0.552   2.293 -0.8978 -0.5211  0.5702
 1628SOL    HW2 4884   1.229   0.626   2.388 -0.6035  0.1160 -0.1899
 1629SOL     OW 4885   2.920   3.805   2.926  0.5670 -0.1228  0.0686
 1629SOL    HW1 4886   2.908   3.880   2.868  1.8305 -0.8781 -1.2161
 1629SOL    HW2 4887   2.851   3.744   2.900  1.3267 -0.5942 -0.9039
 1630SOL     OW 4888   0.014   4.448   2.038  1.1099 -0.4000  0.0470
 1630SOL    HW1 4889  -0.063   4.430   2.091  0.7181  1.4104  0.1763
 1630SOL    HW2 4890   0.088   4.419   2.092  0.6149 -0.4181  0.7302
 1631SOL     OW 4891   4.113   3.249   3.436  0.2110  0.2677 -0.0815
 1631SOL    HW1 4892   4.090   3.297   3.356  1.1540  0.2958 -0.3466
 1631SOL    HW2 4893   4.090   3.158   3.417  2.0588 -0.0364 -1.0820
 1632SOL     OW 4894   2.118   0.183   2.967  0.4659  0.6122 -0.5212
 1632SOL    HW1 4895   2.192   0.133   2.934  1.9573  2.7347 -0.5367
 1632SOL    HW2 4896   2.156   0.246   3.028 -1.3084  1.8565 -0.6243
 1633SOL     OW 4897   2.297   1.377   2.884  0.3277 -0.3918  0.0107
 1633SOL    HW1 4898   2.384   1.344   2.860 -0.4938 -1.4510 -1.6506
 1633SOL    HW2 4899   2.262   1.413   2.803  0.2740  2.6562  1.2670
 1634SOL     OW 4900   2.168   2.223   0.674  0.5752  0.2425  0.0227
 1634SOL    HW1 4901   2.196   2.169   0.748 -0.2758 -0.8607 -0.4226
 1634SOL    HW2 4902   2.177   2.165   0.598  0.3506  0.9816 -0.5786
 1635SOL     OW 4903   0.141   1.379   0.522 -0.9342  0.9534 -0.0011
 1635SOL    HW1 4904   0.194   1.408   0.596  0.7419 -2.3772  0.3210
 1635SOL    HW2 4905   0.174   1.429   0.448 -0.9834  2.6472  1.0766
 1636SOL     OW 4906   4.374   0.568   3.741 -0.1024 -0.2782 -0.1029
 1636SOL    HW1 4907   4.372   0.601   3.651  1.0456  0.0898 -0.0194
 1636SOL    HW2 4908   4.290   0.524   3.753 -1.1995  1.5510 -0.6390
 1637SOL     OW 4909   1.225   2.777   1.951 -0.1489 -0.6687 -0.3185
 1637SOL    HW1 4910   1.259   2.859   1.986 -1.0880 -0.4289  0.0813
 1637SOL    HW2 4911   1.260   2.771   1.862  1.0164 -0.5144  0.1226
 1638SOL     OW 4912   1.200   0.790   0.470 -0.3862 -0.7357  0.0575
 1638SOL    HW1 4913   1.273   0.732   0.448  0.3982 -0.9846  2.9144
 1638SOL    HW2 4914   1.123   0.735   0.462 -0.0147 -1.1854 -0.5643
 1639SOL     OW 4915   1.587   2.466   2.216 -0.6765 -0.1326  0.4831
 1639SOL    HW1 4916   1.575   2.375   2.190 -0.3693 -0.0261 -0.0567
 1639SOL    HW2 4917   1.566   2.468   2.310  0.8340 -1.0729  0.8719
 1640SOL     OW 4918   3.224   0.681   1.229 -0.1947  0.5055  0.8670
 1640SOL    HW1 4919   3.173   0.602   1.211  1.4103 -0.2450 -0.6495
 1640SOL    HW2 4920   3.253   0.671   1.320  0.4387 -0.9255  0.5209
 1641SOL     OW 4921   0.628   3.259   2.475  0.2640  0.4078  0.0212
 1641SOL    HW1 4922   0.647   3.348   2.443 -1.8446  0.5510 -1.0093
 1641SOL    HW2 4923   0.573   3.221   2.406  1.8269 -2.0424  0.0275
 1642SOL     OW 4924   4.238   4.043   2.519  0.7415  0.3426  0.1259
 1642SOL    HW1 4925   4.301   4.076   2.583  0.2032 -0.4652  1.1100
 1642SOL    HW2 4926   4.164   4.103   2.525  0.4116 -0.1033  0.7883
 1643SOL     OW 4927   0.096   1.792   2.132 -0.2130 -0.6960  0.3235
 1643SOL    HW1 4928   0.008   1.756   2.141 -1.0982  0.9293 -1.1942
 1643SOL    HW2 4929   0.122   1.770   2.042 -0.8258  2.2907 -0.7043
 1644SOL     OW 4930   1.178   0.544   0.881 -0.1049  0.3896 -0.2695
 1644SOL    HW1 4931   1.186   0.538   0.785 -3.6448 -0.3864 -0.6510
 1644SOL    HW2 4932   1.083   0.542   0.897  0.3719  0.6889  3.2737
 1645SOL     OW 4933   4.456   0.877   4.211  0.2452 -0.3481  0.4136
 1645SOL    HW1 4934   4.492   0.930   4.283  1.7473  0.2596 -0.7100
 1645SOL    HW2 4935   4.488   0.789   4.228 -0.9427 -0.5938  1.4538
 1646SOL     OW 4936   2.428   2.458   3.813 -0.1775  0.2977 -0.7532
 1646SOL    HW1 4937   2.512   2.497   3.786 -0.3753  0.3938 -1.2470
 1646SOL    HW2 4938   2.372   2.533   3.833 -0.0629  0.2270 -0.1625
 1647SOL     OW 4939   0.170   0.423   3.700  0.4632 -0.6061 -0.1306
 1647SOL    HW1 4940   0.135   0.510   3.678  0.1033 -0.5369  0.6756
 1647SOL    HW2 4941   0.106   0.362   3.663 -0.2686 -0.4859  0.8877
 1648SOL     OW 4942   0.381   1.395   3.865 -0.4104  0.3547  0.4465
 1648SOL    HW1 4943   0.310   1.381   3.802 -1.3254 -0.8138  1.6570
 1648SOL    HW2 4944   0.335   1.414   3.948  0.6881 -0.0691  1.1756
 1649SOL     OW 4945   2.921   0.150   2.609  0.3432 -0.2990  0.7322
 1649SOL    HW1 4946   2.831   0.117   2.612 -0.6776  2.3550  1.9095
 1649SOL    HW2 4947   2.957   0.131   2.696  0.9675 -1.3437  0.2697
 1650SOL     OW 4948   2.063   1.864   4.055  0.8060 -0.2714 -0.3005
 1650SOL    HW1 4949   2.032   1.936   4.110  2.3642  0.3259 -0.1404
 1650SOL    HW2 4950   2.082   1.793   4.117 -2.0459 -1.4131 -0.5760
 1651SOL     OW 4951   3.189   2.639   2.907  0.1395 -0.9799  0.1511
 1651SOL    HW1 4952   3.198   2.675   2.818  0.2844 -1.8965 -0.2251
 1651SOL    HW2 4953   3.257   2.684   2.958 -0.8490  0.5811  0.1635
 1652SOL     OW 4954   2.943   0.310   2.279  0.3576 -0.3150  0.4615
 1652SOL    HW1 4955   2.865   0.265   2.247 -0.2707 -0.2815  1.8795
 1652SOL    HW2 4956   2.968   0.369   2.207 -0.5767 -0.7432 -0.2327
 1653SOL     OW 4957   2.295   0.601   1.782 -0.0307  0.2518 -0.2897
 1653SOL    HW1 4958   2.233   0.661   1.740  0.7651  0.2775 -1.4933
 1653SOL    HW2 4959   2.381   0.637   1.761  0.4217  0.6415  1.9921
 1654SOL     OW 4960   1.211   3.256   2.968 -0.2630  0.2837  0.0316
 1654SOL    HW1 4961   1.160   3.215   3.038  0.4046 -0.2312  0.2222
 1654SOL    HW2 4962   1.228   3.345   3.000 -0.7543  0.3560  0.1072
 1655SOL     OW 4963   1.597   0.596   4.161 -0.0024  0.1710 -0.5716
 1655SOL    HW1 4964   1.502   0.606   4.167 -0.0695 -0.2424 -0.9683
 1655SOL    HW2 4965   1.613   0.502   4.173  0.5141  0.4618  1.5119
 1656SOL     OW 4966   3.859   0.367   3.448 -0.0493 -0.1936 -0.0867
 1656SOL    HW1 4967   3.790   0.432   3.462 -0.1600  0.0639 -1.6259
 1656SOL    HW2 4968   3.821   0.285   3.479 -0.6785  0.1244  0.0051
 1657SOL     OW 4969   2.226   1.214   2.130  0.1049  0.1346 -0.5756
 1657SOL    HW1 4970   2.186   1.291   2.169  0.6917 -0.2466  0.8579
 1657SOL    HW2 4971   2.232   1.234   2.037 -0.9246  1.2749 -0.4199
 1658SOL     OW 4972   2.693   0.506   2.254  0.1156  0.1433 -0.0873
 1658SOL    HW1 4973   2.704   0.462   2.338 -0.5296  0.6294  0.2695
 1658SOL    HW2 4974   2.599   0.525   2.250 -0.0126 -0.6685 -1.3284
 1659SOL     OW 4975   1.838   1.601   2.316 -0.1825  0.1994 -0.0299
 1659SOL    HW1 4976   1.765   1.618   2.256 -1.0518 -2.5853  0.0713
 1659SOL    HW2 4977   1.802   1.618   2.403 -0.7554 -1.0570  0.0116
 1660SOL     OW 4978   0.920   1.648   2.322  0.4524  0.5092 -0.2783
 1660SOL    HW1 4979   0.864   1.581   2.282 -0.3838  0.8333  0.3013
 1660SOL    HW2 4980   0.993   1.658   2.262 -0.1223  0.0666 -1.0670
 1661SOL     OW 4981   1.768   0.316   1.823 -0.7341 -0.1007  0.0091
 1661SOL    HW1 4982   1.847   0.290   1.776  0.1817  0.5879  1.0878
 1661SOL    HW2 4983   1.709   0.241   1.814  0.5002 -1.1453  0.1704
 1662SOL     OW 4984   2.024   1.537   4.449 -0.1353 -0.6418 -0.5303
 1662SOL    HW1 4985   2.035   1.533   4.544 -1.2053  0.2594 -0.3414
 1662SOL    HW2 4986   2.034   1.447   4.419 -1.4031 -1.2091  0.6484
 1663SOL     OW 4987   1.560   4.193   4.055 -0.0507 -0.1946 -0.2169
 1663SOL    HW1 4988   1.491   4.159   4.111 -0.2768  0.2513 -0.2142
 1663SOL    HW2 4989   1.621   4.235   4.115 -0.1076 -0.0316 -0.2712
 1664SOL     OW 4990   1.101   1.038   2.596 -0.1052  0.1958  0.2289
 1664SOL    HW1 4991   1.091   0.972   2.665  0.3338  0.8291  0.9263
 1664SOL    HW2 4992   1.160   1.103   2.635  1.8254 -0.4391 -1.4827
 1665SOL     OW 4993   4.242   0.211   3.779  0.3967 -0.3150 -0.5704
 1665SOL    HW1 4994   4.197   0.243   3.701 -0.4603 -0.4599 -0.1489
 1665SOL    HW2 4995   4.194   0.249   3.852  1.8434  0.6826 -0.1092
 1666SOL     OW 4996   1.652   4.251   0.117 -0.6005  0.5037 -0.3487
 1666SOL    HW1 4997   1.622   4.341   0.111 -0.0295  0.6580 -1.1419
 1666SOL    HW2 4998   1.605   4.205   0.047 -1.7941 -0.1057  0.7992
 1667SOL     OW 4999   1.507   0.795   1.817 -0.3424 -0.2851  0.0902
 1667SOL    HW1 5000   1.487   0.836   1.901 -0.4886  2.4891 -1.2145
 1667SOL    HW2 5001   1.505   0.866   1.754 -0.1710 -2.2679 -2.3004
 1668SOL     OW 5002   4.047   1.348   3.139  0.0754 -0.6514 -0.3374
 1668SOL    HW1 5003   4.094   1.377   3.218  0.1889 -0.8628 -0.3269
 1668SOL    HW2 5004   3.964   1.395   3.143 -0.8520 -2.2524  1.0639
 1669SOL     OW 5005   2.962   2.437   0.741 -0.0040 -0.8881  0.2665
 1669SOL    HW1 5006   2.868   2.454   0.743  0.0500 -0.6590  1.4757
 1669SOL    HW2 5007   2.994   2.489   0.667 -0.7483 -0.5363  0.1801
 1670SOL     OW 5008   0.315   4.184   2.719 -0.4306  0.0676 -0.0237
 1670SOL    HW1 5009   0.306   4.269   2.676  0.7403  0.9518  1.3968
 1670SOL    HW2 5010   0.406   4.182   2.749 -0.3046 -1.8787 -0.3969
 1671SOL     OW 5011   2.842   4.372   0.539  0.4211 -0.0588 -0.0786
 1671SOL    HW1 5012   2.917   4.330   0.582  0.0277  0.8370  1.5364
 1671SOL    HW2 5013   2.874   4.390   0.450  2.4324  1.0190  0.7862
 1672SOL     OW 5014   1.337   4.030   0.531 -0.3105 -0.4636  0.4899
 1672SOL    HW1 5015   1.406   4.039   0.465  0.3616 -0.5381  1.1582
 1672SOL    HW2 5016   1.381   4.052   0.614 -1.2921  0.2965  0.8370
 1673SOL     OW 5017   2.348   2.945   0.974 -0.1816 -0.2666  0.6456
 1673SOL    HW1 5018   2.266   2.960   0.928  0.5237  0.1920 -0.4984
 1673SOL    HW2 5019   2.380   3.033   0.997  0.9442 -0.2859 -0.6796
 1674SOL     OW 5020   2.550   4.128   0.222  0.2993  0.4671  0.0237
 1674SOL    HW1 5021   2.522   4.037   0.233  1.8637  0.1820  2.3538
 1674SOL    HW2 5022   2.480   4.169   0.171 -0.9470 -1.7745 -0.1881
 1675SOL     OW 5023   3.026   1.046   4.159 -0.1749 -0.3148 -0.0429
 1675SOL    HW1 5024   3.026   1.104   4.235  0.4286 -1.2386  0.6742
 1675SOL    HW2 5025   3.084   0.974   4.183 -1.6649 -1.7401 -0.5216
 1676SOL     OW 5026   0.073   0.589   3.428  0.1999 -0.1078  0.2076
 1676SOL    HW1 5027   0.107   0.673   3.462  1.0863  0.2365 -1.3962
 1676SOL    HW2 5028   0.152   0.542   3.401 -0.3376 -1.2537  0.6164
 1677SOL     OW 5029   4.001   1.954   3.871 -0.4696 -0.2650 -0.6788
 1677SOL    HW1 5030   3.983   1.878   3.815 -2.9391 -0.6346  0.5061
 1677SOL    HW2 5031   3.916   1.995   3.884  0.4527  1.3509  0.6560
 1678SOL     OW 5032   2.437   2.667   0.991  0.3969  0.2540 -0.3438
 1678SOL    HW1 5033   2.373   2.601   0.966 -0.2163  0.1048  1.5198
 1678SOL    HW2 5034   2.394   2.750   0.970  0.4441  0.1184 -1.0090
 1679SOL     OW 5035   2.963   2.091   3.096  0.3287 -0.1754 -0.1697
 1679SOL    HW1 5036   2.913   2.173   3.089  1.4478  0.4798 -0.8181
 1679SOL    HW2 5037   2.968   2.058   3.006  1.8751  0.2950 -0.2820
 1680SOL     OW 5038   0.754   0.373   2.302  0.6988  0.0582  0.3477
 1680SOL    HW1 5039   0.807   0.332   2.371  0.7977 -0.0686  0.1959
 1680SOL    HW2 5040   0.692   0.305   2.276  1.1578 -0.1530 -0.2220
 1681SOL     OW 5041   1.329   1.763   1.162 -0.3165 -0.6819 -0.3504
 1681SOL    HW1 5042   1.234   1.756   1.171 -0.3922  1.1560  0.8468
 1681SOL    HW2 5043   1.364   1.704   1.228 -0.6030 -1.3453 -0.7770
 1682SOL     OW 5044   1.488   0.472   4.493  0.0254  0.5296 -0.1826
 1682SOL    HW1 5045   1.435   0.441   4.567 -1.8446  3.1863 -0.2431
 1682SOL    HW2 5046   1.445   0.435   4.416 -1.9637  2.7387 -0.2362
 1683SOL     OW 5047   2.735   4.145   2.935  0.8151 -0.7964 -0.0268
 1683SOL    HW1 5048   2.683   4.186   2.866 -1.4760 -0.5564  1.7394
 1683SOL    HW2 5049   2.807   4.207   2.951  0.4101 -0.0538 -0.9897
 1684SOL     OW 5050   2.329   3.624   0.689  0.5589  0.1222 -0.0793
 1684SOL    HW1 5051   2.414   3.633   0.732  0.2381  2.1050  0.2331
 1684SOL    HW2 5052   2.272   3.685   0.735 -0.2999  0.9117 -2.0940
 1685SOL     OW 5053   1.791   2.977   3.898  0.2937  0.0213 -0.2370
 1685SOL    HW1 5054   1.706   2.955   3.935  0.1074  0.3569 -0.4622
 1685SOL    HW2 5055   1.825   2.894   3.865  0.0286 -0.1025 -0.2015
 1686SOL     OW 5056   1.832   3.600   3.836 -0.3166 -0.5542  0.4190
 1686SOL    HW1 5057   1.867   3.684   3.806 -0.8575 -0.0309  1.2051
 1686SOL    HW2 5058   1.741   3.618   3.858 -0.5798 -1.4748  0.1256
 1687SOL     OW 5059   1.897   0.726   1.274 -0.1174  0.2510 -0.0276
 1687SOL    HW1 5060   1.803   0.716   1.284 -0.1972 -1.5072 -2.1209
 1687SOL    HW2 5061   1.909   0.819   1.252 -1.3533  0.4308 -0.0013
 1688SOL     OW 5062   0.996   2.515   3.014 -0.1325 -0.0270 -0.3039
 1688SOL    HW1 5063   1.069   2.501   2.952  0.1245 -2.7841  0.4878
 1688SOL    HW2 5064   0.943   2.436   3.007  0.2161 -0.7547  3.3604
 1689SOL     OW 5065   0.193   1.342   0.039 -0.0467  0.1671  0.1791
 1689SOL    HW1 5066   0.276   1.346  -0.009 -0.2087  0.6982 -0.0673
 1689SOL    HW2 5067   0.182   1.250   0.061 -0.4368 -0.2414 -1.6218
 1690SOL     OW 5068   3.048   0.912   2.297 -0.3062 -0.1622 -0.1458
 1690SOL    HW1 5069   3.007   0.995   2.274  0.8767  0.3832 -0.3567
 1690SOL    HW2 5070   2.975   0.850   2.303 -1.2573  0.9665  0.4096
 1691SOL     OW 5071   3.906   3.331   3.643  0.3814  0.8099 -0.4573
 1691SOL    HW1 5072   3.968   3.308   3.712 -0.3529 -1.5306 -0.4930
 1691SOL    HW2 5073   3.956   3.323   3.562 -0.0114 -1.7289 -0.5403
 1692SOL     OW 5074   3.261   2.244   1.958 -0.1393 -0.0228 -0.2573
 1692SOL    HW1 5075   3.328   2.280   2.016  0.3224 -1.1943 -0.0301
 1692SOL    HW2 5076   3.311   2.199   1.889 -0.6303 -2.1577  0.6992
 1693SOL     OW 5077   3.612   3.558   1.451 -0.0804  0.3411  0.3775
 1693SOL    HW1 5078   3.519   3.568   1.468 -0.2589  1.7337 -1.1347
 1693SOL    HW2 5079   3.618   3.485   1.389 -0.2861  0.9443 -0.3624
 1694SOL     OW 5080   1.784   3.945   4.266  0.3578 -0.2505 -0.2938
 1694SOL    HW1 5081   1.796   3.852   4.284 -1.0180 -0.1908  1.1346
 1694SOL    HW2 5082   1.794   3.952   4.171  2.2457 -1.5354 -0.2529
 1695SOL     OW 5083   1.079   0.319   0.147  0.2711  0.3341  0.0822
 1695SOL    HW1 5084   1.066   0.232   0.184 -0.1016  0.1028 -0.5775
 1695SOL    HW2 5085   1.171   0.339   0.165  0.4338 -0.3179 -0.0175
 1696SOL     OW 5086  -0.034   0.575   4.482 -0.0123 -0.5509  0.5372
 1696SOL    HW1 5087   0.034   0.571   4.414  0.6949  0.5386  1.1533
 1696SOL    HW2 5088   0.003   0.524   4.554  0.5891  0.8074  1.2218
 1697SOL     OW 5089   3.420   0.900   1.772  0.5295  0.3483 -0.0326
 1697SOL    HW1 5090   3.467   0.886   1.854 -1.5970  0.8094  1.3676
 1697SOL    HW2 5091   3.381   0.987   1.781  0.3128  0.4385 -1.5766
 1698SOL     OW 5092   2.681   2.216   3.362  1.0288 -0.1734  0.3209
 1698SOL    HW1 5093   2.635   2.285   3.313  0.6293 -0.4026  0.3675
 1698SOL    HW2 5094   2.645   2.222   3.450  1.9395  0.4144  0.6645
 1699SOL     OW 5095   0.928   1.838   3.019  0.3894  0.4969 -0.3857
 1699SOL    HW1 5096   0.877   1.757   3.023  1.4947 -0.2215 -0.3205
 1699SOL    HW2 5097   0.903   1.878   2.936  1.5546 -1.1304 -1.6017
 1700SOL     OW 5098   0.527   2.857   1.614  0.2706 -0.4701 -0.1320
 1700SOL    HW1 5099   0.616   2.852   1.579  1.2778  0.3885  2.1212
 1700SOL    HW2 5100   0.539   2.855   1.709 -1.9683  1.5385  0.2711
 1701SOL     OW 5101   2.919   3.744   3.331  0.0007  0.5944  0.4325
 1701SOL    HW1 5102   2.998   3.690   3.325 -0.8496 -0.5975 -0.8815
 1701SOL    HW2 5103   2.862   3.697   3.392 -1.2579 -0.8167 -1.6766
 1702SOL     OW 5104   3.537   4.223   2.777 -0.0253 -0.6071 -0.7334
 1702SOL    HW1 5105   3.629   4.204   2.795 -0.0794 -0.8548 -0.7159
 1702SOL    HW2 5106   3.535   4.318   2.760  0.0575 -0.4030  0.3269
 1703SOL     OW 5107   2.335   2.255   1.582 -0.3560  0.2627  0.5854
 1703SOL    HW1 5108   2.333   2.313   1.659  0.1574 -1.3422  1.8797
 1703SOL    HW2 5109   2.427   2.254   1.555  0.1422 -1.8106  2.1331
 1704SOL     OW 5110   0.071   1.870   0.767 -0.1372  0.1080  0.0458
 1704SOL    HW1 5111   0.104   1.820   0.692  1.4023  2.0124 -0.6388
 1704SOL    HW2 5112  -0.011   1.908   0.736 -0.1744 -0.1868 -0.2211
 1705SOL     OW 5113   2.401   4.023   1.100 -0.6274  0.2306  0.0047
 1705SOL    HW1 5114   2.451   4.016   1.019 -0.3371  0.7011  0.1419
 1705SOL    HW2 5115   2.309   4.014   1.072 -0.5383  0.5645 -0.3952
 1706SOL     OW 5116   2.235   2.830   2.569  0.2313 -0.4258 -0.4069
 1706SOL    HW1 5117   2.144   2.831   2.540  0.1195 -3.3114 -0.4025
 1706SOL    HW2 5118   2.285   2.848   2.490 -0.3029 -1.0697 -0.9101
 1707SOL     OW 5119   2.291   3.692   3.582 -0.0926 -0.3236  0.7420
 1707SOL    HW1 5120   2.209   3.664   3.541  0.4792  0.7071 -1.2503
 1707SOL    HW2 5121   2.269   3.776   3.623  0.1910  0.5661 -0.8423
 1708SOL     OW 5122   2.329   1.617   0.071 -0.0828 -0.6772  0.2563
 1708SOL    HW1 5123   2.354   1.665   0.150  3.5048  0.6640 -1.4356
 1708SOL    HW2 5124   2.379   1.535   0.076 -0.2953 -0.8480 -0.2992
 1709SOL     OW 5125   3.704   1.706   2.413 -0.3444 -0.2277 -0.0671
 1709SOL    HW1 5126   3.780   1.659   2.380 -0.2676  0.0165 -0.2457
 1709SOL    HW2 5127   3.636   1.690   2.347  0.0890  1.0567 -0.8797
 1710SOL     OW 5128   4.462   0.720   1.065 -0.1617  0.2080  0.4186
 1710SOL    HW1 5129   4.496   0.644   1.018 -0.5016 -0.3700  1.0956
 1710SOL    HW2 5130   4.452   0.690   1.155  0.5220  1.3243  0.8814
 1711SOL     OW 5131   2.089   3.045   1.808  0.0039  0.3677  0.0604
 1711SOL    HW1 5132   2.076   2.965   1.859 -2.9397  0.1544 -0.8224
 1711SOL    HW2 5133   2.157   3.022   1.745 -0.3095 -1.2602  0.2650
 1712SOL     OW 5134   3.586   4.092   2.370 -0.7096 -0.3334  0.5196
 1712SOL    HW1 5135   3.565   4.035   2.443  1.0512 -1.4020  0.2600
 1712SOL    HW2 5136   3.647   4.156   2.406 -1.6550  0.6060  0.5003
 1713SOL     OW 5137   2.175   4.172   4.406 -0.2518 -0.2128 -0.3589
 1713SOL    HW1 5138   2.197   4.120   4.328 -1.8791  0.0957 -1.0771
 1713SOL    HW2 5139   2.081   4.157   4.418 -0.3808  1.1438  0.4865
 1714SOL     OW 5140   4.025   0.655   0.446 -0.0857 -0.3836 -0.2794
 1714SOL    HW1 5141   4.026   0.647   0.351 -0.1218 -1.2692 -0.2143
 1714SOL    HW2 5142   4.065   0.574   0.478  0.2338  0.0466  0.4541
 1715SOL     OW 5143   2.345   0.416   0.977 -0.1298  0.2269 -0.3508
 1715SOL    HW1 5144   2.348   0.440   1.070 -0.2726  2.4297 -0.8612
 1715SOL    HW2 5145   2.283   0.344   0.974 -0.9399  0.8000  1.1558
 1716SOL     OW 5146   4.239   0.441   0.196 -0.0137 -0.7283 -0.2512
 1716SOL    HW1 5147   4.258   0.524   0.240 -0.3274 -0.9418  0.2940
 1716SOL    HW2 5148   4.147   0.447   0.172 -0.6981 -1.8185  1.8417
 1717SOL     OW 5149   1.728   2.641   1.554  0.0969  0.1442 -0.4128
 1717SOL    HW1 5150   1.768   2.582   1.617 -0.9225  0.8744  0.9745
 1717SOL    HW2 5151   1.801   2.684   1.510  0.8350 -1.4315 -0.7740
 1718SOL     OW 5152   3.139   0.815   3.923 -0.1838 -0.4250 -0.0954
 1718SOL    HW1 5153   3.162   0.829   3.832 -1.5894  1.0013 -0.2685
 1718SOL    HW2 5154   3.203   0.866   3.973  1.7656 -2.6715 -0.1033
 1719SOL     OW 5155   3.103   4.292   4.220 -0.1019  0.5260  0.0677
 1719SOL    HW1 5156   3.191   4.272   4.250 -0.0117  0.2099 -0.4082
 1719SOL    HW2 5157   3.063   4.207   4.201 -0.8855  0.5882  1.3133
 1720SOL     OW 5158   0.832   1.743   2.570 -0.2089  0.1772 -0.1250
 1720SOL    HW1 5159   0.770   1.674   2.592  1.4035 -1.0073  0.9748
 1720SOL    HW2 5160   0.870   1.715   2.487  1.9433 -1.4989  1.2880
 1721SOL     OW 5161   3.780   1.623   0.161 -0.5163  0.0818 -0.2856
 1721SOL    HW1 5162   3.869   1.657   0.167  0.4462 -1.9754 -1.7943
 1721SOL    HW2 5163   3.762   1.587   0.248  1.0027 -1.4084 -0.5480
 1722SOL     OW 5164   2.931   2.894   1.888 -0.0725  0.0286 -0.0579
 1722SOL    HW1 5165   3.012   2.853   1.859 -0.8142 -0.8082 -0.9834
 1722SOL    HW2 5166   2.881   2.823   1.928 -0.8225  0.3035 -0.5025
 1723SOL     OW 5167   3.566   1.891   3.603 -0.0405  0.1156  0.2695
 1723SOL    HW1 5168   3.495   1.843   3.562  0.9185 -1.1351  0.0058
 1723SOL    HW2 5169   3.528   1.928   3.683 -0.5603 -2.0377  1.0768
 1724SOL     OW 5170   0.584   2.658   3.088  0.4550 -0.4338 -0.0260
 1724SOL    HW1 5171   0.659   2.708   3.057 -1.5453  0.7701 -3.4681
 1724SOL    HW2 5172   0.587   2.666   3.183  3.4506  1.3226 -0.1456
 1725SOL     OW 5173   2.274   2.917   2.011  0.0366 -0.1694 -0.4345
 1725SOL    HW1 5174   2.196   2.929   2.067 -0.4519  0.2120 -1.1799
 1725SOL    HW2 5175   2.330   2.991   2.034 -0.3785  0.2619 -0.7933
 1726SOL     OW 5176   0.130   1.716   1.878 -0.0913  0.7505  0.2939
 1726SOL    HW1 5177   0.185   1.663   1.820  0.7346  0.3966  1.3600
 1726SOL    HW2 5178   0.040   1.688   1.859  0.2878 -0.6036  0.4017
 1727SOL     OW 5179   1.099   4.390   2.530  0.3385 -0.0741 -0.3090
 1727SOL    HW1 5180   1.123   4.394   2.437  0.4617  0.2552 -0.2658
 1727SOL    HW2 5181   1.173   4.431   2.575 -0.6657  1.7909 -0.2350
 1728SOL     OW 5182   3.488   0.997   3.244 -0.4427 -0.1137  0.3800
 1728SOL    HW1 5183   3.486   0.984   3.338  1.5014  2.5882  0.8884
 1728SOL    HW2 5184   3.437   1.077   3.229 -1.5433 -1.0232 -1.0254
 1729SOL     OW 5185   1.423   0.452   1.354  0.0043 -0.1771 -0.3807
 1729SOL    HW1 5186   1.431   0.449   1.449 -1.3352 -1.3579 -0.2707
 1729SOL    HW2 5187   1.461   0.537   1.329 -0.5349  0.5957  1.2921
 1730SOL     OW 5188   4.445   3.817   0.517 -0.0821  0.7339 -0.1692
 1730SOL    HW1 5189   4.532   3.814   0.478  0.1241 -0.2252  0.3235
 1730SOL    HW2 5190   4.390   3.858   0.451  0.9121  2.2192 -0.1280
 1731SOL     OW 5191   1.208   0.266   2.421  0.4871 -0.2208 -0.0300
 1731SOL    HW1 5192   1.114   0.257   2.405  0.5794 -0.1219 -0.6539
 1731SOL    HW2 5193   1.231   0.351   2.382  0.7369  0.0043  0.5905
 1732SOL     OW 5194   1.619   2.259   3.351  0.3514 -0.1903 -0.5309
 1732SOL    HW1 5195   1.660   2.275   3.436  0.8909  0.2688 -0.8716
 1732SOL    HW2 5196   1.624   2.164   3.339 -1.8162 -0.5685  0.9729
 1733SOL     OW 5197   2.681   4.184   1.926  0.0963 -0.3378 -0.1452
 1733SOL    HW1 5198   2.603   4.228   1.893 -0.2703 -1.0554 -0.2405
 1733SOL    HW2 5199   2.673   4.191   2.022  0.3398  0.3111 -0.1661
 1734SOL     OW 5200   0.010   2.229   1.746 -0.2174  0.5153  0.3646
 1734SOL    HW1 5201  -0.042   2.150   1.755 -2.0172  1.4814 -0.9996
 1734SOL    HW2 5202   0.052   2.222   1.661  0.5284  0.5489  0.7144
 1735SOL     OW 5203   0.781   1.069   1.255  0.4435 -0.7379 -0.2472
 1735SOL    HW1 5204   0.706   1.013   1.278 -0.5787  0.0625 -1.4950
 1735SOL    HW2 5205   0.843   1.010   1.212  0.2845 -1.3006  0.2802
 1736SOL     OW 5206   1.152   1.284   3.333 -0.1567 -0.0539  0.1499
 1736SOL    HW1 5207   1.149   1.200   3.379 -1.5316  0.5776  1.2823
 1736SOL    HW2 5208   1.168   1.348   3.402  0.8194  0.6356 -0.6955
 1737SOL     OW 5209   2.805   1.856   0.232 -0.1056  0.7154 -0.3662
 1737SOL    HW1 5210   2.848   1.910   0.165 -0.1653  2.8117  1.1979
 1737SOL    HW2 5211   2.749   1.917   0.280 -0.2682 -0.7577  1.4275
 1738SOL     OW 5212   1.992   1.263   4.420 -0.4939  0.3701 -0.1846
 1738SOL    HW1 5213   2.025   1.189   4.471  0.3373 -1.2814 -2.8608
 1738SOL    HW2 5214   1.901   1.272   4.447  0.2057  0.4239  2.3876
 1739SOL     OW 5215   1.071   0.878   0.185 -0.3604  0.2209 -0.4830
 1739SOL    HW1 5216   1.021   0.870   0.266 -0.9189 -0.0106 -0.8431
 1739SOL    HW2 5217   1.123   0.798   0.180  0.7915  0.8831  0.3698
 1740SOL     OW 5218   1.125   1.542   2.137  0.2136  1.2574 -0.3220
 1740SOL    HW1 5219   1.165   1.575   2.057 -3.4277  0.9782 -2.5014
 1740SOL    HW2 5220   1.094   1.454   2.114 -2.4231  1.8091  0.7111
 1741SOL     OW 5221   1.420   2.006   1.166 -0.4079 -0.1998  0.1765
 1741SOL    HW1 5222   1.513   2.001   1.145 -0.0507  1.0861  1.3586
 1741SOL    HW2 5223   1.389   1.915   1.156  0.3021 -0.2166 -2.9298
 1742SOL     OW 5224   0.688   3.625   0.715  0.0856  0.1320 -0.1541
 1742SOL    HW1 5225   0.647   3.540   0.735  2.2864 -0.6733  1.2932
 1742SOL    HW2 5226   0.707   3.621   0.621 -1.2648 -0.2930 -0.4293
 1743SOL     OW 5227   3.341   3.245   3.424 -0.2653 -0.1907  0.5187
 1743SOL    HW1 5228   3.393   3.270   3.348 -1.3629  1.6598  0.3269
 1743SOL    HW2 5229   3.381   3.291   3.498 -0.6578 -0.0465  0.6459
 1744SOL     OW 5230   2.336   1.680   1.617  0.7398  0.6529 -0.2045
 1744SOL    HW1 5231   2.379   1.597   1.595 -1.0249 -0.8349  1.6291
 1744SOL    HW2 5232   2.344   1.687   1.712 -2.0635  0.8105  0.0952
 1745SOL     OW 5233   2.270   0.549   3.562 -0.0115 -0.5790  1.0589
 1745SOL    HW1 5234   2.280   0.458   3.533  0.1253 -0.1096 -0.4377
 1745SOL    HW2 5235   2.355   0.571   3.599  0.8192 -0.2990 -0.8938
 1746SOL     OW 5236   0.667   3.494   3.140 -0.1269  0.1435 -0.1359
 1746SOL    HW1 5237   0.744   3.536   3.178 -0.1578 -1.0839  1.3611
 1746SOL    HW2 5238   0.702   3.425   3.083 -0.0397 -1.6448  1.9541
 1747SOL     OW 5239   0.805   3.451   1.253  0.2961 -0.0665 -0.2668
 1747SOL    HW1 5240   0.712   3.445   1.274  0.1215 -1.6975 -1.3388
 1747SOL    HW2 5241   0.841   3.507   1.322 -1.6374  1.4800 -0.4175
 1748SOL     OW 5242   0.702   3.247   0.852  0.1764  0.5539 -0.2152
 1748SOL    HW1 5243   0.746   3.222   0.770  0.5786 -1.4326  0.5598
 1748SOL    HW2 5244   0.613   3.211   0.843  0.4030 -0.1957  0.4456
 1749SOL     OW 5245   0.170   2.162   0.446 -0.6377 -0.5743  0.6888
 1749SOL    HW1 5246   0.245   2.219   0.427 -0.4513 -0.3586  1.9646
 1749SOL    HW2 5247   0.202   2.074   0.428 -0.5742 -0.3701 -0.2414
 1750SOL     OW 5248   4.002   0.208   2.037  0.7751 -0.5917  0.1910
 1750SOL    HW1 5249   4.035   0.273   2.100 -0.8710  2.8727 -2.1793
 1750SOL    HW2 5250   3.922   0.175   2.077  1.7434 -1.4136  1.5386
 1751SOL     OW 5251   0.237   0.357   1.073  0.3018 -0.2698 -0.2381
 1751SOL    HW1 5252   0.276   0.297   1.009  1.5816  0.3782 -0.0926
 1751SOL    HW2 5253   0.156   0.314   1.098  0.9856 -1.7632 -0.4338
 1752SOL     OW 5254   0.369   2.186   2.157 -0.4861  0.0800  0.3145
 1752SOL    HW1 5255   0.298   2.167   2.095  0.6885  1.4150 -1.5698
 1752SOL    HW2 5256   0.403   2.270   2.128  2.7825 -1.1492  0.1710
 1753SOL     OW 5257   4.417   3.292   4.266  0.4486 -0.0331  0.5851
 1753SOL    HW1 5258   4.429   3.276   4.360  2.7721  0.1396  0.3535
 1753SOL    HW2 5259   4.371   3.377   4.263  1.3566  0.5256  1.5745
 1754SOL     OW 5260   2.598   2.849   0.814  0.2839 -0.3210 -0.3297
 1754SOL    HW1 5261   2.551   2.820   0.892 -0.6607  2.1480  0.0841
 1754SOL    HW2 5262   2.663   2.911   0.847  0.0388  0.5623 -1.4724
 1755SOL     OW 5263   3.788   3.091   3.544  0.1137  0.5387 -0.5217
 1755SOL    HW1 5264   3.826   3.017   3.591  0.1683 -0.0007 -1.3825
 1755SOL    HW2 5265   3.820   3.168   3.591  0.7276  0.0419 -0.0969
 1756SOL     OW 5266   3.822   3.540   2.407 -0.0565 -0.3279 -0.3362
 1756SOL    HW1 5267   3.859   3.627   2.394  3.7684 -1.6215  0.4730
 1756SOL    HW2 5268   3.765   3.548   2.483 -1.0625  1.7332 -1.2431
 1757SOL     OW 5269   1.723   3.327   0.060 -0.3536 -0.2524 -0.4094
 1757SOL    HW1 5270   1.781   3.256   0.087 -1.4726 -1.1785 -0.3476
 1757SOL    HW2 5271   1.753   3.350  -0.027  2.2782  1.6698  0.8759
 1758SOL     OW 5272   1.389   1.420   3.210  0.5169 -0.8616 -0.1815
 1758SOL    HW1 5273   1.394   1.498   3.266  0.5222 -1.7319  1.0865
 1758SOL    HW2 5274   1.304   1.382   3.229 -1.0554  0.6564 -3.4225
 1759SOL     OW 5275   0.037   1.787   2.823 -0.4748  0.0989 -0.1104
 1759SOL    HW1 5276   0.004   1.839   2.749  0.5757  0.0181 -0.6522
 1759SOL    HW2 5277   0.074   1.851   2.883  0.1248  0.0553 -0.4205
 1760SOL     OW 5278   1.658   0.271   3.317 -0.0738  0.1826 -0.6732
 1760SOL    HW1 5279   1.691   0.343   3.264 -0.4070  0.5547 -0.3760
 1760SOL    HW2 5280   1.645   0.309   3.404  0.3080 -0.3798 -0.3651
 1761SOL     OW 5281   3.458   2.354   2.206 -0.1889 -0.8623 -0.3061
 1761SOL    HW1 5282   3.408   2.431   2.177  0.8222  0.0617  0.3528
 1761SOL    HW2 5283   3.543   2.364   2.165 -0.3860 -2.2339 -1.1028
 1762SOL     OW 5284   1.285   2.866   1.660  0.3083 -0.4282 -0.7179
 1762SOL    HW1 5285   1.306   2.856   1.567  1.8960 -1.3671 -0.3004
 1762SOL    HW2 5286   1.295   2.959   1.677 -0.0082 -0.2489 -1.4846
 1763SOL     OW 5287   4.259   1.762   4.193  0.1529 -0.2817  0.5743
 1763SOL    HW1 5288   4.296   1.746   4.280 -1.2776  0.6552  1.3913
 1763SOL    HW2 5289   4.167   1.736   4.200 -1.0156  3.2611  0.5341
 1764SOL     OW 5290   2.300   0.473   2.685 -0.3353  0.2273  0.3087
 1764SOL    HW1 5291   2.386   0.504   2.658 -0.6923  0.9965  0.0106
 1764SOL    HW2 5292   2.241   0.503   2.616 -0.9959  0.6332  1.0276
 1765SOL     OW 5293   1.157   4.231   2.734 -0.2905  0.1111 -0.7249
 1765SOL    HW1 5294   1.082   4.186   2.773 -0.0513  0.3991  0.0873
 1765SOL    HW2 5295   1.120   4.311   2.696 -0.5902 -0.3686 -1.4893
 1766SOL     OW 5296   1.049   3.463   1.079 -0.0513 -0.8003 -0.4510
 1766SOL    HW1 5297   1.029   3.425   0.994 -0.5406 -0.1309 -0.6437
 1766SOL    HW2 5298   0.969   3.449   1.131  0.3150 -1.3875 -0.0283
 1767SOL     OW 5299   2.384   3.664   3.926 -0.3817  0.5773 -0.3868
 1767SOL    HW1 5300   2.426   3.607   3.990 -1.5052  2.2675  1.9823
 1767SOL    HW2 5301   2.444   3.664   3.851  1.1690 -1.2111  0.7785
 1768SOL     OW 5302   1.830   1.364   3.672 -0.0444 -0.4524 -0.5627
 1768SOL    HW1 5303   1.908   1.345   3.619  1.0959  1.5047  0.2789
 1768SOL    HW2 5304   1.840   1.311   3.751 -0.3629 -1.3444 -1.1131
 1769SOL     OW 5305   0.571   3.608   0.390 -0.0251  0.6134 -0.4041
 1769SOL    HW1 5306   0.662   3.593   0.418 -0.4949  0.9510  1.4013
 1769SOL    HW2 5307   0.577   3.617   0.295  1.7114 -0.2413 -0.4140
 1770SOL     OW 5308   3.510   0.760   2.137 -0.3291  0.0204  0.6847
 1770SOL    HW1 5309   3.497   0.816   2.213 -1.3571  0.2788  0.3320
 1770SOL    HW2 5310   3.564   0.812   2.078 -1.3464  0.6846  0.3256
 1771SOL     OW 5311   0.772   0.631   1.906  0.4457 -0.0860  0.4709
 1771SOL    HW1 5312   0.830   0.598   1.975  1.0060  0.8832  0.4840
 1771SOL    HW2 5313   0.789   0.726   1.903  1.4030 -0.2434 -1.8535
 1772SOL     OW 5314   2.324   3.758   2.077  0.5726  0.2423  0.2882
 1772SOL    HW1 5315   2.244   3.716   2.110  0.2480  1.0363  0.5223
 1772SOL    HW2 5316   2.363   3.799   2.154  1.2318 -0.1547  0.1803
 1773SOL     OW 5317   4.107   3.671   0.328  0.1662  0.1682  0.1557
 1773SOL    HW1 5318   4.013   3.684   0.334  0.0986 -0.3970  0.3721
 1773SOL    HW2 5319   4.125   3.595   0.384  0.8445  0.7011  0.6938
 1774SOL     OW 5320   3.005   2.989   0.889  0.5954 -1.4461 -0.5410
 1774SOL    HW1 5321   3.011   2.985   0.984 -2.2270 -0.9665 -0.2716
 1774SOL    HW2 5322   3.014   2.898   0.860 -0.4198 -1.8487  0.3636
 1775SOL     OW 5323   0.752   2.637   4.218 -0.3496  0.2821  0.0638
 1775SOL    HW1 5324   0.786   2.547   4.220  0.2547  0.5058  2.0377
 1775SOL    HW2 5325   0.681   2.637   4.282 -0.0459  1.3326  0.4070
 1776SOL     OW 5326   0.597   0.667   0.259 -0.2773 -0.2596  0.4797
 1776SOL    HW1 5327   0.611   0.579   0.225  1.4564  0.2572 -0.2674
 1776SOL    HW2 5328   0.593   0.656   0.354  1.0253 -1.0415  0.4719
 1777SOL     OW 5329   3.498   0.698   0.884 -0.4921 -0.0660  0.3146
 1777SOL    HW1 5330   3.427   0.634   0.892  0.7739 -1.3651  1.8431
 1777SOL    HW2 5331   3.528   0.712   0.974  2.0514 -0.6220 -0.3733
 1778SOL     OW 5332   3.440   3.387   2.512  0.0851 -0.2641  0.1235
 1778SOL    HW1 5333   3.364   3.441   2.534  0.7037  0.6728 -0.0184
 1778SOL    HW2 5334   3.515   3.439   2.538  0.7136 -0.8235 -0.5331
 1779SOL     OW 5335   2.085   4.465   0.559 -0.0171  0.3089 -0.1279
 1779SOL    HW1 5336   2.036   4.384   0.575 -0.1228  0.0632 -1.5930
 1779SOL    HW2 5337   2.159   4.438   0.505 -0.0477  1.1896 -0.6237
 1780SOL     OW 5338   1.714   3.443   1.938 -0.6244  0.6455  0.4796
 1780SOL    HW1 5339   1.677   3.453   2.025  0.5606 -1.4002  1.2814
 1780SOL    HW2 5340   1.745   3.352   1.935  0.3123  0.9698 -1.6951
 1781SOL     OW 5341   4.322   0.448   4.264 -0.1921 -0.6999 -0.2051
 1781SOL    HW1 5342   4.366   0.521   4.308 -0.7544 -0.7319  0.4277
 1781SOL    HW2 5343   4.389   0.381   4.255  0.0204 -0.5640  0.3104
 1782SOL     OW 5344   0.052   3.656   4.117  0.8652  0.3670  0.4032
 1782SOL    HW1 5345   0.135   3.704   4.124  0.7511  0.5452  0.5555
 1782SOL    HW2 5346  -0.013   3.724   4.100  0.6660  0.2934  0.8629
 1783SOL     OW 5347   1.604   4.431   4.397 -0.3936 -0.4302  0.4648
 1783SOL    HW1 5348   1.670   4.422   4.328 -0.3417  1.5205  0.2035
 1783SOL    HW2 5349   1.563   4.345   4.403  0.1737 -0.8681 -1.4350
 1784SOL     OW 5350   3.669   3.521   0.602 -0.5103  0.2103  0.4085
 1784SOL    HW1 5351   3.581   3.509   0.568 -0.2263 -1.3215  0.1288
 1784SOL    HW2 5352   3.701   3.601   0.560 -1.0902 -0.2526 -0.9728
 1785SOL     OW 5353   0.251   2.221   3.074 -0.3660  0.3292 -0.0886
 1785SOL    HW1 5354   0.238   2.141   3.023 -0.1731 -0.9311  1.7516
 1785SOL    HW2 5355   0.163   2.243   3.106 -0.3994  0.8026 -0.4951
 1786SOL     OW 5356   4.193   3.245   0.045  0.0376  0.4386  0.3917
 1786SOL    HW1 5357   4.175   3.281   0.132 -0.0785  0.6144  0.2958
 1786SOL    HW2 5358   4.154   3.308  -0.015  2.0075  1.4737  0.1172
 1787SOL     OW 5359   3.662   3.924   0.829 -0.6450 -0.0784  0.4142
 1787SOL    HW1 5360   3.655   4.000   0.770 -0.8887  0.2129  0.8122
 1787SOL    HW2 5361   3.643   3.960   0.915  0.5385 -0.3316  0.7962
 1788SOL     OW 5362   2.950   2.125   4.298  0.0861 -0.5416 -0.4633
 1788SOL    HW1 5363   2.884   2.067   4.260 -0.4695  1.1610 -2.2355
 1788SOL    HW2 5364   3.018   2.130   4.231 -0.2246  1.3867 -0.6779
 1789SOL     OW 5365   2.001   1.327   2.526  0.2527  0.3164 -0.3341
 1789SOL    HW1 5366   2.023   1.283   2.444 -0.2258 -0.0129 -0.2874
 1789SOL    HW2 5367   1.914   1.365   2.510 -0.1862 -0.4079  0.2764
 1790SOL     OW 5368   3.985   3.822   3.788  0.2664 -0.0552 -0.0841
 1790SOL    HW1 5369   3.911   3.769   3.756  0.8469 -1.3028  0.5537
 1790SOL    HW2 5370   4.061   3.787   3.742  0.5864  0.6325 -0.0812
 1791SOL     OW 5371   4.220   3.237   2.900  0.2954  0.4820  0.3933
 1791SOL    HW1 5372   4.224   3.143   2.920  1.2079 -0.1074 -2.2516
 1791SOL    HW2 5373   4.301   3.255   2.854 -0.6698  2.1838 -0.7257
 1792SOL     OW 5374   4.094   3.916   4.414 -0.6173  0.4356  0.1217
 1792SOL    HW1 5375   4.086   3.995   4.468 -1.6052  0.4004  0.0405
 1792SOL    HW2 5376   4.187   3.914   4.389 -0.1049  0.4047  1.8790
 1793SOL     OW 5377   3.489   3.105   3.017  0.2346  0.2996 -0.0754
 1793SOL    HW1 5378   3.457   3.131   2.931 -0.3520 -2.9825 -0.9774
 1793SOL    HW2 5379   3.584   3.100   3.006  0.4635  2.6364  0.3778
 1794SOL     OW 5380   0.988   1.427   0.626  0.2778  0.1275  0.0997
 1794SOL    HW1 5381   1.082   1.425   0.644  0.3459  0.3183 -0.2158
 1794SOL    HW2 5382   0.973   1.514   0.588 -0.1888  0.4518  0.9951
 1795SOL     OW 5383   2.092   0.224   3.365 -0.2554  0.0658 -0.2673
 1795SOL    HW1 5384   2.082   0.319   3.364 -0.2049  0.0927  0.6622
 1795SOL    HW2 5385   2.160   0.206   3.300  0.3187  0.7496  0.1311
 1796SOL     OW 5386   3.007   0.768   1.627 -0.5456  0.1178 -0.4612
 1796SOL    HW1 5387   3.004   0.674   1.641  0.1764  0.3548  1.7483
 1796SOL    HW2 5388   3.097   0.785   1.599 -0.7859  0.1150 -1.2440
 1797SOL     OW 5389   4.041   4.345   4.473 -0.0053 -0.6789 -0.5126
 1797SOL    HW1 5390   4.128   4.381   4.453 -0.4808  0.2988 -0.8897
 1797SOL    HW2 5391   3.985   4.422   4.483 -0.5567 -1.2478  1.0961
 1798SOL     OW 5392   0.829   4.350   3.547  0.3658 -0.3945 -0.6734
 1798SOL    HW1 5393   0.849   4.279   3.486 -0.1400 -0.9611 -0.1978
 1798SOL    HW2 5394   0.743   4.381   3.519 -0.2847 -1.2736  0.3006
 1799SOL     OW 5395   3.862   0.212   3.776  0.2851 -0.3039 -0.4236
 1799SOL    HW1 5396   3.915   0.222   3.856 -0.6380 -2.3145  0.4954
 1799SOL    HW2 5397   3.790   0.274   3.787  0.4196 -0.2355  0.0963
 1800SOL     OW 5398   1.018   1.255   1.180  0.1366 -0.0349  0.2375
 1800SOL    HW1 5399   1.070   1.177   1.198  1.2198  0.1776 -1.7080
 1800SOL    HW2 5400   1.000   1.292   1.267  0.5644 -1.8009  1.1318
 1801SOL     OW 5401   2.199   3.152   3.941  0.5229  0.4260  0.5614
 1801SOL    HW1 5402   2.280   3.200   3.956  1.5034 -0.6770 -1.0031
 1801SOL    HW2 5403   2.191   3.144   3.846 -1.4308  0.5034  0.6676
 1802SOL     OW 5404   2.045   1.571   1.038  1.1203  0.2316  0.4456
 1802SOL    HW1 5405   2.030   1.589   1.131  0.2567 -0.4241  0.4496
 1802SOL    HW2 5406   2.122   1.515   1.037  0.6214 -0.4905  0.8560
 1803SOL     OW 5407   3.372   2.115   2.288 -1.1921  0.7365 -0.0443
 1803SOL    HW1 5408   3.382   2.208   2.267 -1.5195  0.1899 -3.1559
 1803SOL    HW2 5409   3.278   2.102   2.297 -1.3852  0.3290 -2.1500
 1804SOL     OW 5410   2.163   4.096   0.595 -0.1655 -0.0427 -0.1623
 1804SOL    HW1 5411   2.121   4.011   0.582  0.8789 -0.3265 -2.0082
 1804SOL    HW2 5412   2.157   4.139   0.509 -0.8700  1.8806  0.7710
 1805SOL     OW 5413   1.699   3.245   0.976  0.3604  0.1584 -0.0922
 1805SOL    HW1 5414   1.773   3.184   0.973 -0.0424 -0.3247 -0.1880
 1805SOL    HW2 5415   1.626   3.197   0.938 -0.2124  0.3555  0.7286
 1806SOL     OW 5416   4.320   1.191   0.420 -0.5428 -0.5206  0.6402
 1806SOL    HW1 5417   4.284   1.198   0.508 -1.3036  0.8620  0.2483
 1806SOL    HW2 5418   4.344   1.281   0.397  0.7333 -1.0280 -0.1318
 1807SOL     OW 5419   2.338   3.671   2.940  0.0086 -0.7185  0.0162
 1807SOL    HW1 5420   2.412   3.652   2.997  1.4203  0.2735 -1.3773
 1807SOL    HW2 5421   2.304   3.755   2.971  1.9226  0.7522 -1.5822
 1808SOL     OW 5422   2.254   4.267   1.448 -0.0912  0.1204 -1.1254
 1808SOL    HW1 5423   2.299   4.273   1.364  1.2401 -0.9078 -0.5228
 1808SOL    HW2 5424   2.242   4.173   1.462 -0.1246  0.2685 -0.0723
 1809SOL     OW 5425   1.775   4.196   0.801 -0.7809 -0.1982 -0.0718
 1809SOL    HW1 5426   1.723   4.236   0.871  0.7491  1.5240  0.1585
 1809SOL    HW2 5427   1.764   4.102   0.814  0.1176  0.0153  3.0672
 1810SOL     OW 5428   1.873   3.969   1.681 -0.2921  0.0080 -0.1680
 1810SOL    HW1 5429   1.941   3.982   1.616 -0.1266 -0.3189 -0.0610
 1810SOL    HW2 5430   1.829   3.888   1.654 -1.1365  0.6131 -0.6724
 1811SOL     OW 5431   2.036   2.840   3.418  0.3348 -0.1867  0.3021
 1811SOL    HW1 5432   1.943   2.820   3.408  0.1957  0.9146 -0.8988
 1811SOL    HW2 5433   2.080   2.782   3.356  0.4743 -0.8033  0.9668
 1812SOL     OW 5434   1.601   2.333   0.922  0.0402  0.2562  0.4899
 1812SOL    HW1 5435   1.581   2.390   0.996  2.7453  2.1161 -0.0658
 1812SOL    HW2 5436   1.682   2.289   0.946  0.0843 -0.3613 -0.7043
 1813SOL     OW 5437   0.563   1.217   2.195 -0.5428 -0.2718 -0.2205
 1813SOL    HW1 5438   0.512   1.282   2.146 -2.3013 -2.1187 -0.9751
 1813SOL    HW2 5439   0.532   1.226   2.285 -0.8075 -0.0937 -0.3261
 1814SOL     OW 5440   2.540   2.022   1.659  0.5535 -0.3921  0.1104
 1814SOL    HW1 5441   2.532   2.099   1.603 -2.3306 -0.1724  0.6541
 1814SOL    HW2 5442   2.566   1.951   1.600 -1.6566 -0.0023 -1.4501
 1815SOL     OW 5443   3.262   3.015   0.397  0.1614 -0.0922 -0.2196
 1815SOL    HW1 5444   3.303   2.961   0.464 -3.0775 -1.7183  0.6817
 1815SOL    HW2 5445   3.256   3.102   0.437  2.7395  0.2875 -0.4949
 1816SOL     OW 5446   0.698   4.458   2.241 -0.3188 -0.8540  0.1201
 1816SOL    HW1 5447   0.656   4.491   2.321 -1.5957 -2.5715  0.2373
 1816SOL    HW2 5448   0.669   4.518   2.172  0.3670  0.3429  0.8454
 1817SOL     OW 5449   2.153   3.568   2.156 -0.4138  0.4863 -0.2276
 1817SOL    HW1 5450   2.082   3.554   2.093 -0.0502  0.9880 -0.7525
 1817SOL    HW2 5451   2.196   3.482   2.162 -0.1827  0.5425 -0.9916
 1818SOL     OW 5452   0.487   2.054   2.599  0.1459  0.2920 -0.0027
 1818SOL    HW1 5453   0.431   2.107   2.543 -0.0925  1.4890  1.2890
 1818SOL    HW2 5454   0.426   2.005   2.655  0.3392  1.0346  0.8965
 1819SOL     OW 5455   2.345   3.776   2.695 -0.0246 -0.5764  0.0260
 1819SOL    HW1 5456   2.370   3.726   2.772  0.5955  0.1611  0.3149
 1819SOL    HW2 5457   2.408   3.752   2.628  1.6826  1.4223  0.8085
 1820SOL     OW 5458   3.720   3.512   3.418 -0.0101  0.1116 -0.4071
 1820SOL    HW1 5459   3.636   3.468   3.427 -0.1500 -0.0852 -2.2989
 1820SOL    HW2 5460   3.701   3.591   3.368  0.7473  0.7007  0.2090
 1821SOL     OW 5461   2.670   0.255   0.934  0.0907  0.6435 -0.1190
 1821SOL    HW1 5462   2.657   0.220   0.846  2.2898 -1.6877  0.3933
 1821SOL    HW2 5463   2.608   0.206   0.988  1.1391 -0.4659  0.1259
 1822SOL     OW 5464   3.485   3.746   3.675 -0.5018  0.6857 -0.4461
 1822SOL    HW1 5465   3.495   3.828   3.627 -0.7195  0.9387 -0.0606
 1822SOL    HW2 5466   3.524   3.763   3.761 -1.0182  0.5528 -0.1840
 1823SOL     OW 5467   3.637   3.824   2.270 -0.2452  0.6567  0.4509
 1823SOL    HW1 5468   3.559   3.792   2.226 -0.1254  0.3829  0.4298
 1823SOL    HW2 5469   3.641   3.773   2.351  0.1859  0.2997  0.2123
 1824SOL     OW 5470   4.392   2.059   3.310 -0.6875  0.1650  0.3864
 1824SOL    HW1 5471   4.430   2.112   3.240 -1.2316 -0.2569 -0.2517
 1824SOL    HW2 5472   4.467   2.029   3.361 -0.4404  2.8513  1.7703
 1825SOL     OW 5473   2.485   2.807   1.814 -0.4008  0.4249  0.7712
 1825SOL    HW1 5474   2.410   2.807   1.874 -1.6289  1.2988 -0.6976
 1825SOL    HW2 5475   2.544   2.873   1.850 -1.0808  0.8821  1.0693
 1826SOL     OW 5476   1.456   2.625   0.117  0.2673 -0.2655  0.3990
 1826SOL    HW1 5477   1.511   2.577   0.180  0.6206 -0.3775  0.0152
 1826SOL    HW2 5478   1.378   2.649   0.166  0.8332  0.2472  1.0754
 1827SOL     OW 5479   2.564   3.703   0.827 -0.0652  0.5170  0.0993
 1827SOL    HW1 5480   2.579   3.789   0.866  0.6676  0.2559  0.4134
 1827SOL    HW2 5481   2.585   3.715   0.734  1.1234  0.4287  0.3322
 1828SOL     OW 5482   1.854   1.748   4.319 -0.5309 -0.1872 -0.5046
 1828SOL    HW1 5483   1.777   1.729   4.372 -0.9994 -1.0305 -1.4661
 1828SOL    HW2 5484   1.900   1.665   4.311  1.0881  0.5070  0.9511
 1829SOL     OW 5485   2.800   3.681   2.338 -0.4911 -0.5971  0.1310
 1829SOL    HW1 5486   2.801   3.609   2.274  0.2861  0.4788 -1.1108
 1829SOL    HW2 5487   2.831   3.757   2.289  1.2640  0.0312  2.0739
 1830SOL     OW 5488   1.719   1.399   2.577  0.3066 -0.5260  0.5934
 1830SOL    HW1 5489   1.628   1.405   2.547  0.5789 -1.3641 -0.4755
 1830SOL    HW2 5490   1.717   1.434   2.666 -0.4275  2.9286 -0.5941
 1831SOL     OW 5491   1.403   2.051   0.397  0.6464  0.8682  0.3310
 1831SOL    HW1 5492   1.410   2.146   0.391 -0.7255  1.1069  1.8959
 1831SOL    HW2 5493   1.489   2.021   0.425  0.0169  2.1306  4.1187
 1832SOL     OW 5494   2.598   0.276   2.502 -0.0248 -0.2128 -0.1461
 1832SOL    HW1 5495   2.654   0.199   2.509  0.2090 -0.0756 -0.4745
 1832SOL    HW2 5496   2.525   0.248   2.446  0.8091  0.2166 -1.5058
 1833SOL     OW 5497   0.806   1.087   1.534  0.2380  0.4255  0.0887
 1833SOL    HW1 5498   0.835   1.093   1.443  0.1479 -1.3991 -0.0798
 1833SOL    HW2 5499   0.853   1.012   1.570  1.2463  1.8584  1.9449
 1834SOL     OW 5500   1.329   0.792   2.346  0.2966 -0.0936 -0.0017
 1834SOL    HW1 5501   1.405   0.736   2.330 -0.6241 -1.6182  0.7130
 1834SOL    HW2 5502   1.365   0.873   2.382  1.6464 -0.3429 -0.7627
 1835SOL     OW 5503   0.967   0.481   2.124  0.5568 -0.6885  0.0100
 1835SOL    HW1 5504   1.005   0.411   2.072  0.5193 -0.8845  0.2441
 1835SOL    HW2 5505   0.901   0.438   2.178 -1.8265  0.0152 -2.1852
 1836SOL     OW 5506   4.456   3.367   2.367 -0.1522 -0.3884  0.1251
 1836SOL    HW1 5507   4.435   3.320   2.287 -0.8032  0.7611 -0.4064
 1836SOL    HW2 5508   4.551   3.364   2.373 -0.0056  0.5139 -1.3350
 1837SOL     OW 5509   3.776   2.818   3.799  0.2160  0.3832 -0.2571
 1837SOL    HW1 5510   3.703   2.771   3.841 -0.1616  1.3421  0.1914
 1837SOL    HW2 5511   3.735   2.864   3.726  0.2091  1.5855  0.4889
 1838SOL     OW 5512   3.883   4.485   0.360  0.6463  0.1145 -0.2434
 1838SOL    HW1 5513   3.966   4.474   0.314  0.2832 -0.3451 -0.8108
 1838SOL    HW2 5514   3.817   4.480   0.291  0.2023  1.6444  0.0452
 1839SOL     OW 5515   3.019   3.438   1.970  0.0760  0.5269  0.3269
 1839SOL    HW1 5516   3.073   3.361   1.950  1.0414  0.9654  1.1307
 1839SOL    HW2 5517   3.070   3.512   1.937 -0.5338  0.8813  0.1620
 1840SOL     OW 5518   0.983   0.381   1.518  0.1070 -0.5333  0.4150
 1840SOL    HW1 5519   1.022   0.294   1.531  0.1601 -0.6389 -0.4145
 1840SOL    HW2 5520   0.910   0.366   1.458 -0.0727 -0.0441  0.5041
 1841SOL     OW 5521   0.718   2.805   4.027 -0.0057  0.1055  0.6915
 1841SOL    HW1 5522   0.635   2.792   3.982  0.5392 -2.1531  0.2111
 1841SOL    HW2 5523   0.715   2.743   4.100  0.8012  0.8033  1.3310
 1842SOL     OW 5524   1.707   3.707   0.988  0.0332  0.0985  0.3059
 1842SOL    HW1 5525   1.760   3.662   0.922  0.2623  0.3464  0.3181
 1842SOL    HW2 5526   1.658   3.638   1.031 -1.6313  0.1083 -1.4606
 1843SOL     OW 5527   2.448   0.120   0.989  0.2191  0.0353  0.1015
 1843SOL    HW1 5528   2.430   0.052   0.923  2.8958  1.1680 -2.0231
 1843SOL    HW2 5529   2.367   0.170   0.995 -0.0931  0.0111 -2.5970
 1844SOL     OW 5530   2.680   3.041   1.853  0.0547  0.2862 -0.4971
 1844SOL    HW1 5531   2.650   3.128   1.880  0.7720 -0.0020  1.3765
 1844SOL    HW2 5532   2.775   3.043   1.867  0.0859 -0.7670 -0.5169
 1845SOL     OW 5533   2.505   0.289   1.540  0.0903 -0.2708  0.0270
 1845SOL    HW1 5534   2.535   0.221   1.600  2.0370 -0.0532 -0.6315
 1845SOL    HW2 5535   2.467   0.241   1.466  2.4966 -0.7686 -0.9800
 1846SOL     OW 5536   3.438   3.475   3.589 -0.6437  0.0626 -0.4335
 1846SOL    HW1 5537   3.427   3.568   3.609 -0.9777 -0.0572 -0.0333
 1846SOL    HW2 5538   3.523   3.453   3.624 -0.4266  0.2880 -0.8080
 1847SOL     OW 5539   0.134   0.300   3.972 -0.1437 -0.3303  0.1546
 1847SOL    HW1 5540   0.070   0.358   3.930  0.9034  1.6010  1.1039
 1847SOL    HW2 5541   0.080   0.241   4.025 -1.2273  0.1635 -0.3549
 1848SOL     OW 5542   0.840   2.151   4.421  0.0100 -0.3029  0.1725
 1848SOL    HW1 5543   0.809   2.152   4.511  1.9016  0.4021  0.8680
 1848SOL    HW2 5544   0.915   2.092   4.421  1.3259  1.2676 -0.4205
 1849SOL     OW 5545   4.314   0.461   1.075  0.1579  0.3107 -0.5713
 1849SOL    HW1 5546   4.307   0.368   1.054  0.7569  0.1767 -0.2015
 1849SOL    HW2 5547   4.407   0.480   1.067  0.5173  0.1662  2.1892
 1850SOL     OW 5548   2.263   3.131   3.679  0.2787 -0.4944 -0.0276
 1850SOL    HW1 5549   2.310   3.208   3.648 -0.8066 -0.0356 -0.5720
 1850SOL    HW2 5550   2.193   3.117   3.615  0.0205 -1.5137  0.4395
 1851SOL     OW 5551   2.455   2.058   4.424 -0.2435  0.4338 -0.4898
 1851SOL    HW1 5552   2.435   2.114   4.350  2.0043 -0.2845 -1.7137
 1851SOL    HW2 5553   2.448   1.969   4.390  3.8377  0.0916 -0.8461
 1852SOL     OW 5554   2.906   3.560   0.392 -0.9823  0.3953  0.4310
 1852SOL    HW1 5555   2.823   3.516   0.413 -0.5243 -2.6390 -3.0674
 1852SOL    HW2 5556   2.968   3.526   0.457 -1.5560 -0.9354  0.3221
 1853SOL     OW 5557   2.688   2.559   0.735 -0.1385  0.3762 -0.9477
 1853SOL    HW1 5558   2.639   2.640   0.718 -1.0426 -0.1718 -1.0543
 1853SOL    HW2 5559   2.692   2.553   0.830  1.4251  1.4009 -0.9175
 1854SOL     OW 5560   0.719   2.421   1.580  0.0329 -0.4813 -0.2058
 1854SOL    HW1 5561   0.775   2.373   1.640  1.9329  0.7058 -0.9172
 1854SOL    HW2 5562   0.743   2.389   1.493  1.9671  2.1520 -0.7827
 1855SOL     OW 5563   1.992   1.362   0.359  0.0325  0.5569 -0.4017
 1855SOL    HW1 5564   1.899   1.345   0.372  0.3349 -0.0264  1.3071
 1855SOL    HW2 5565   2.022   1.294   0.299 -0.4682  0.1966 -0.2463
 1856SOL     OW 5566   2.824   0.097   2.067 -0.0097 -0.0399  0.0342
 1856SOL    HW1 5567   2.758   0.142   2.013 -0.8367 -0.0068  1.0377
 1856SOL    HW2 5568   2.855   0.025   2.012 -1.9624 -0.9573  0.0188
 1857SOL     OW 5569   3.780   1.447   2.973 -0.4419 -0.3183  0.0075
 1857SOL    HW1 5570   3.712   1.494   2.925 -0.1934 -0.7908 -0.8318
 1857SOL    HW2 5571   3.785   1.491   3.057 -0.3360  1.0578 -0.6937
 1858SOL     OW 5572   1.286   1.620   1.927 -0.3680 -0.3434  0.8172
 1858SOL    HW1 5573   1.376   1.615   1.957  0.8492  1.9719 -1.9931
 1858SOL    HW2 5574   1.278   1.553   1.860  0.6248  1.9388 -1.7475
 1859SOL     OW 5575   1.042   3.118   1.837  0.0816 -0.6009  0.2817
 1859SOL    HW1 5576   1.053   3.127   1.742  0.8584 -0.6437  0.3577
 1859SOL    HW2 5577   1.064   3.026   1.855 -0.6021 -0.7368  0.4353
 1860SOL     OW 5578   3.486   3.690   1.797 -0.6541 -0.0094  0.1558
 1860SOL    HW1 5579   3.469   3.706   1.704  2.1820  0.1648 -0.3951
 1860SOL    HW2 5580   3.544   3.614   1.798  1.0237  1.2181  1.6024
 1861SOL     OW 5581   0.655   1.708   4.255 -0.3388 -0.0728  0.0534
 1861SOL    HW1 5582   0.610   1.665   4.182  0.6852 -0.6026 -0.2941
 1861SOL    HW2 5583   0.642   1.649   4.329  1.9576 -1.6602 -0.6646
 1862SOL     OW 5584   2.557   2.252   0.898  0.1065 -0.0962  0.2405
 1862SOL    HW1 5585   2.576   2.168   0.940  0.6170  0.1347  0.4886
 1862SOL    HW2 5586   2.503   2.299   0.962 -2.0072 -1.0508 -0.7846
 1863SOL     OW 5587   0.774   3.012   1.739  0.3696  0.6809 -0.2945
 1863SOL    HW1 5588   0.735   3.075   1.679  0.5667 -0.2312 -1.3983
 1863SOL    HW2 5589   0.868   3.024   1.730  0.4085  0.2056 -0.5390
 1864SOL     OW 5590   2.054   2.891   3.051  0.0315  0.2600  0.2639
 1864SOL    HW1 5591   2.084   2.821   3.109 -0.0694  0.5529  0.6753
 1864SOL    HW2 5592   2.117   2.962   3.064 -0.2438  0.4905  0.3491
 1865SOL     OW 5593   2.321   3.112   2.677  0.6389 -0.3262 -0.6206
 1865SOL    HW1 5594   2.347   3.076   2.762 -1.1842  0.1913  0.2162
 1865SOL    HW2 5595   2.264   3.046   2.639  0.6062 -0.0983 -0.9764
 1866SOL     OW 5596   1.123   1.710   1.451  0.6914  0.1047 -0.5247
 1866SOL    HW1 5597   1.199   1.667   1.413  0.7116  0.4040 -0.8396
 1866SOL    HW2 5598   1.154   1.747   1.533  0.8009 -0.0502 -0.4965
 1867SOL     OW 5599   3.139   1.994   2.024  0.5474 -0.0845 -0.0079
 1867SOL    HW1 5600   3.055   1.971   2.064  0.8387  0.3580  0.8832
 1867SOL    HW2 5601   3.130   2.088   2.003  0.3317 -0.3462 -1.1767
 1868SOL     OW 5602   2.520   3.225   3.371 -0.1862 -0.1042  0.1574
 1868SOL    HW1 5603   2.427   3.209   3.355 -0.3806 -0.1804  1.2626
 1868SOL    HW2 5604   2.545   3.292   3.307 -0.9095 -0.3321 -0.3735
 1869SOL     OW 5605   2.651   2.688   2.990  0.4777  0.0379  0.5460
 1869SOL    HW1 5606   2.745   2.691   2.974  0.2771  0.4832 -0.6934
 1869SOL    HW2 5607   2.620   2.776   2.968 -0.3214 -0.3111  0.2358
 1870SOL     OW 5608   3.628   1.919   2.775 -0.4737 -0.7717  0.6507
 1870SOL    HW1 5609   3.611   1.983   2.844 -1.5701 -1.3206  0.9262
 1870SOL    HW2 5610   3.558   1.935   2.710  1.2479  0.5623 -0.9820
 1871SOL     OW 5611   4.292   3.672   0.700 -0.3856 -0.0862 -0.1883
 1871SOL    HW1 5612   4.203   3.706   0.695 -0.3818 -0.2380 -1.6955
 1871SOL    HW2 5613   4.341   3.723   0.636  0.9050  0.7750  1.4232
 1872SOL     OW 5614   1.218   0.871   1.491  0.3828  0.1323  0.0653
 1872SOL    HW1 5615   1.189   0.786   1.523  2.3623 -0.4635  0.3532
 1872SOL    HW2 5616   1.209   0.929   1.566 -0.8097  0.1828 -0.0860
 1873SOL     OW 5617   0.508   0.699   3.386  0.2601 -0.3686 -0.9131
 1873SOL    HW1 5618   0.460   0.759   3.330  1.5470  0.6523 -0.9659
 1873SOL    HW2 5619   0.460   0.699   3.468 -0.5324 -0.3502 -1.3686
 1874SOL     OW 5620   1.952   0.901   2.226 -0.2790 -0.2119 -0.3122
 1874SOL    HW1 5621   1.962   0.864   2.313 -0.7375  1.2091  0.3637
 1874SOL    HW2 5622   2.042   0.921   2.198 -0.2433  0.8754  0.5372
 1875SOL     OW 5623   4.028   4.396   2.747  0.0963 -0.1987  0.5605
 1875SOL    HW1 5624   3.943   4.402   2.703  0.1890 -0.6482  0.3125
 1875SOL    HW2 5625   4.039   4.302   2.764 -0.3550  0.0485  2.3716
 1876SOL     OW 5626   3.636   3.257   2.053  0.2691  0.3164 -0.5542
 1876SOL    HW1 5627   3.541   3.251   2.064  0.4634  0.5363  1.5757
 1876SOL    HW2 5628   3.672   3.216   2.131  1.9484  0.3842 -1.2560
 1877SOL     OW 5629   0.161   1.438   1.433 -0.0778  0.5477  0.0759
 1877SOL    HW1 5630   0.252   1.467   1.426  0.3014 -0.2038  1.6255
 1877SOL    HW2 5631   0.159   1.380   1.509 -1.9141  0.7782  0.2560
 1878SOL     OW 5632   0.423   2.413   3.365  0.0275 -0.6336 -0.1722
 1878SOL    HW1 5633   0.335   2.405   3.403 -0.5744  0.4734 -1.2645
 1878SOL    HW2 5634   0.468   2.334   3.394 -2.0112 -2.3462 -1.3178
 1879SOL     OW 5635   2.630   2.065   1.122  0.5960  0.0661 -0.3143
 1879SOL    HW1 5636   2.697   2.021   1.069 -0.3616  0.3045 -1.7826
 1879SOL    HW2 5637   2.566   1.997   1.141  0.9633 -0.0291  0.6042
 1880SOL     OW 5638   2.535   1.468   3.080 -0.6432  0.1711  0.6572
 1880SOL    HW1 5639   2.542   1.559   3.051 -1.2410 -0.5832 -2.1992
 1880SOL    HW2 5640   2.555   1.416   3.002 -2.1786 -2.1254  1.6574
 1881SOL     OW 5641   2.192   3.891   3.022 -0.2751 -1.0331 -0.1347
 1881SOL    HW1 5642   2.251   3.964   3.006  0.0302 -1.0028  1.0482
 1881SOL    HW2 5643   2.121   3.903   2.958  0.7231 -0.7958 -1.2407
 1882SOL     OW 5644   2.038   3.873   3.307  0.0625 -0.1879  0.0927
 1882SOL    HW1 5645   1.973   3.918   3.253 -0.0177  0.5195  0.7605
 1882SOL    HW2 5646   2.093   3.943   3.342  1.1609 -0.7707 -0.4030
 1883SOL     OW 5647   3.443   0.129   1.802 -0.1830 -0.0215  0.0311
 1883SOL    HW1 5648   3.435   0.126   1.707  0.3455 -1.4279  0.0061
 1883SOL    HW2 5649   3.358   0.161   1.832 -0.7154 -0.5528 -0.8751
 1884SOL     OW 5650   0.944   2.566   2.467  0.3446 -0.1988 -0.1104
 1884SOL    HW1 5651   1.030   2.525   2.464 -0.6879 -2.4259 -0.9194
 1884SOL    HW2 5652   0.921   2.569   2.560  0.6112 -1.1009 -0.0140
 1885SOL     OW 5653   2.480   1.397   2.538 -0.5387  0.1522 -0.3421
 1885SOL    HW1 5654   2.463   1.408   2.631 -0.2565 -1.5975 -0.0522
 1885SOL    HW2 5655   2.528   1.476   2.513 -1.5410  1.1512  0.7208
 1886SOL     OW 5656   2.624   2.984   2.144 -0.2485  0.1990  0.1325
 1886SOL    HW1 5657   2.587   3.035   2.072 -0.2353 -1.5771 -1.2153
 1886SOL    HW2 5658   2.666   3.048   2.201  0.8595  1.5692 -2.1035
 1887SOL     OW 5659   0.673   1.905   2.197  0.0037 -0.2071 -0.1843
 1887SOL    HW1 5660   0.590   1.897   2.150 -0.0568 -1.5415  0.1051
 1887SOL    HW2 5661   0.652   1.880   2.287  0.5603  0.2245  0.0721
 1888SOL     OW 5662   0.286   3.402   0.120 -0.4699  0.0955  0.2148
 1888SOL    HW1 5663   0.248   3.456   0.050  0.0838 -0.4087 -0.4955
 1888SOL    HW2 5664   0.301   3.317   0.078 -0.7880 -0.4365  1.1556
 1889SOL     OW 5665   2.058   1.687   1.532  0.1446 -0.2075  0.0646
 1889SOL    HW1 5666   2.112   1.655   1.603  1.5672  0.0287 -0.8779
 1889SOL    HW2 5667   2.113   1.680   1.454 -1.5789 -1.0262 -1.1316
 1890SOL     OW 5668   0.222   3.312   2.457  0.2215  0.7969  0.0661
 1890SOL    HW1 5669   0.222   3.249   2.529 -1.2440  2.4446  1.6107
 1890SOL    HW2 5670   0.286   3.278   2.395  1.3359 -0.8472  2.0056
 1891SOL     OW 5671   4.397   3.755   3.294  0.0078  0.7044 -0.1555
 1891SOL    HW1 5672   4.438   3.707   3.366 -3.3319 -0.9766  0.8564
 1891SOL    HW2 5673   4.445   3.728   3.216  1.4738 -0.2575  1.0388
 1892SOL     OW 5674   0.945   3.961   0.414  0.4843 -0.2661  0.0845
 1892SOL    HW1 5675   0.957   3.943   0.321 -0.9667 -1.2116  0.0404
 1892SOL    HW2 5676   1.015   3.913   0.458  0.3876 -0.9114 -0.4490
 1893SOL     OW 5677   0.136   3.227   1.567  0.2347 -0.4981  0.3814
 1893SOL    HW1 5678   0.224   3.200   1.595 -0.0428 -1.3103  0.4827
 1893SOL    HW2 5679   0.081   3.151   1.583  0.1442 -1.2598 -2.7996
 1894SOL     OW 5680   4.278   2.268   3.832  0.1092 -0.5623  0.1372
 1894SOL    HW1 5681   4.192   2.226   3.836  0.5337 -1.5153 -0.3131
 1894SOL    HW2 5682   4.303   2.281   3.923 -0.9400  0.6668  0.2769
 1895SOL     OW 5683   0.564   0.183   1.376  0.2706  0.4082  0.4508
 1895SOL    HW1 5684   0.524   0.263   1.410 -0.3217 -0.1948  1.2196
 1895SOL    HW2 5685   0.499   0.115   1.393  0.1922 -0.0319 -1.4156
 1896SOL     OW 5686   2.746   1.176   1.669  0.0299 -0.1892  0.2757
 1896SOL    HW1 5687   2.790   1.198   1.587  0.0721  0.9636  0.5849
 1896SOL    HW2 5688   2.735   1.261   1.713 -0.5843 -0.7160  1.1573
 1897SOL     OW 5689   0.788   4.275   4.181 -0.0700  0.2758 -0.4517
 1897SOL    HW1 5690   0.732   4.250   4.255 -0.1989 -1.4527 -1.0718
 1897SOL    HW2 5691   0.793   4.196   4.127  1.8440  0.8010 -1.1490
 1898SOL     OW 5692   4.001   3.621   1.637 -0.1359  0.3427 -0.4959
 1898SOL    HW1 5693   3.973   3.678   1.565 -0.4305 -0.5490 -1.1117
 1898SOL    HW2 5694   3.968   3.534   1.612  1.8417 -0.4530 -0.4881
 1899SOL     OW 5695   0.699   4.191   0.580  0.3280  0.5816  0.3145
 1899SOL    HW1 5696   0.681   4.261   0.642  1.1342 -0.0183  1.2737
 1899SOL    HW2 5697   0.770   4.141   0.621 -1.8457 -2.2702  0.8858
 1900SOL     OW 5698   3.697   1.566   0.462 -0.0987  0.0534  0.1707
 1900SOL    HW1 5699   3.726   1.481   0.494 -0.1206 -0.3446 -0.8219
 1900SOL    HW2 5700   3.602   1.559   0.459 -0.0364 -0.7083 -1.9717
 1901SOL     OW 5701  -0.009   0.338   1.821 -0.0173  0.4853  0.1000
 1901SOL    HW1 5702   0.086   0.326   1.819  0.4829  3.6412 -0.0529
 1901SOL    HW2 5703  -0.039   0.308   1.735  0.8330 -0.5320  0.1441
 1902SOL     OW 5704   2.854   3.948   0.367  0.0465  0.0619 -0.1665
 1902SOL    HW1 5705   2.925   3.985   0.314  0.0773 -0.0249 -0.1857
 1902SOL    HW2 5706   2.821   3.874   0.315 -0.4072  0.4221 -0.4032
 1903SOL     OW 5707   2.538   4.129   0.678  0.4017  0.0544  0.1848
 1903SOL    HW1 5708   2.541   4.169   0.590  0.2860  1.2980  0.7187
 1903SOL    HW2 5709   2.591   4.188   0.732 -1.3888  0.5904  1.4334
 1904SOL     OW 5710   3.182   3.671   3.323 -0.1190  0.0612 -0.0766
 1904SOL    HW1 5711   3.186   3.724   3.403  0.5209  0.5719 -0.4303
 1904SOL    HW2 5712   3.265   3.690   3.278 -0.0111 -1.0223 -0.3563
 1905SOL     OW 5713   2.311   3.356   0.862 -0.2660 -1.1213 -0.1600
 1905SOL    HW1 5714   2.250   3.285   0.843 -1.9771 -0.2220  1.6066
 1905SOL    HW2 5715   2.264   3.435   0.836  1.3188 -0.5309 -1.4253
 1906SOL     OW 5716   3.021   2.962   1.171  0.1029 -0.2412  0.1400
 1906SOL    HW1 5717   2.931   2.962   1.202  0.6206  1.6362  1.8394
 1906SOL    HW2 5718   3.046   2.869   1.170 -1.5180 -0.7042  0.6119
 1907SOL     OW 5719   3.559   4.061   1.060 -0.1269  0.7979 -0.3443
 1907SOL    HW1 5720   3.565   4.020   1.146  0.1122  1.5370 -0.0017
 1907SOL    HW2 5721   3.612   4.140   1.067 -1.2840  1.6339 -0.7117
 1908SOL     OW 5722   2.042   0.679   0.801  0.3073  0.1748  0.8252
 1908SOL    HW1 5723   2.041   0.756   0.744 -2.6859  1.9118  2.9576
 1908SOL    HW2 5724   1.973   0.622   0.768 -0.4934  0.5385  1.8143
 1909SOL     OW 5725   0.329   0.915   2.378 -0.8954 -0.0242 -0.1451
 1909SOL    HW1 5726   0.424   0.914   2.390 -0.8021 -0.4960 -0.8428
 1909SOL    HW2 5727   0.295   0.853   2.442 -0.4703 -1.9961 -1.7213
 1910SOL     OW 5728   1.869   3.591   0.771 -0.4105 -0.3452 -0.0798
 1910SOL    HW1 5729   1.914   3.507   0.771  1.4435  0.5758 -1.1828
 1910SOL    HW2 5730   1.829   3.597   0.684  0.1375  0.2504 -0.2923
 1911SOL     OW 5731   1.696   2.891   0.828 -0.8391  0.1196  0.3479
 1911SOL    HW1 5732   1.750   2.815   0.848 -1.0303 -0.1635 -0.2065
 1911SOL    HW2 5733   1.660   2.873   0.742 -1.1642  0.6817  0.3634
 1912SOL     OW 5734   4.057  -0.002   3.169  0.1938  0.0146  0.6237
 1912SOL    HW1 5735   3.962  -0.009   3.165  0.1809  0.5532 -0.1040
 1912SOL    HW2 5736   4.074   0.074   3.225  0.2265 -0.7755  1.7242
 1913SOL     OW 5737   1.799   0.055   3.215  0.0397  0.1968  0.4175
 1913SOL    HW1 5738   1.873   0.052   3.276  0.6206  0.9600 -0.2237
 1913SOL    HW2 5739   1.741   0.121   3.251  0.9823  1.5734 -0.4684
 1914SOL     OW 5740   3.339   3.622   1.551  0.3136 -0.1877 -0.2430
 1914SOL    HW1 5741   3.275   3.557   1.582 -0.5932  0.2585 -1.1367
 1914SOL    HW2 5742   3.288   3.702   1.540  1.0350  0.1790 -0.9653
 1915SOL     OW 5743   1.418   1.727   2.236  0.0670  0.1739  0.0187
 1915SOL    HW1 5744   1.362   1.765   2.303  0.4198  0.2282  0.2870
 1915SOL    HW2 5745   1.370   1.650   2.206 -0.8418  1.0502 -0.8309
 1916SOL     OW 5746   2.716   2.361   4.511 -0.9473 -0.5065  0.3262
 1916SOL    HW1 5747   2.634   2.391   4.474 -0.4733  0.8550  0.3336
 1916SOL    HW2 5748   2.780   2.428   4.487 -0.0066 -1.1234  1.0060
 1917SOL     OW 5749   2.857   3.678   1.135  0.0300  0.1907 -0.4926
 1917SOL    HW1 5750   2.920   3.743   1.104 -0.9788  0.5114 -1.9533
 1917SOL    HW2 5751   2.772   3.720   1.123 -0.5291 -0.5903  0.5834
 1918SOL     OW 5752   0.066   0.415   3.136  0.4835  0.6590  0.5027
 1918SOL    HW1 5753   0.141   0.440   3.190  1.9624 -1.2747 -0.5155
 1918SOL    HW2 5754   0.102   0.411   3.047 -0.8785 -0.1099 -0.0352
 1919SOL     OW 5755   1.689   0.175   1.478 -0.5056 -0.2280 -0.1329
 1919SOL    HW1 5756   1.761   0.143   1.533  0.7447  0.2712 -1.4035
 1919SOL    HW2 5757   1.629   0.218   1.539  0.8162  0.2829  0.8610
 1920SOL     OW 5758   2.198   2.560   2.322  0.1277  0.1537  0.5676
 1920SOL    HW1 5759   2.171   2.468   2.321 -0.6874  0.3804  1.0305
 1920SOL    HW2 5760   2.265   2.565   2.254 -0.7957 -0.4949 -0.4468
 1921SOL     OW 5761   2.833   2.271   3.637  0.7187  0.3676 -0.1022
 1921SOL    HW1 5762   2.747   2.311   3.645  0.7226  0.0685  2.3104
 1921SOL    HW2 5763   2.890   2.342   3.609 -0.2736  0.5457 -1.8285
 1922SOL     OW 5764   2.298   4.408   4.086  0.6044 -0.0694  0.5672
 1922SOL    HW1 5765   2.393   4.398   4.093  0.7257 -0.5162 -1.1961
 1922SOL    HW2 5766   2.286   4.482   4.026 -0.1821  0.5788  1.4976
 1923SOL     OW 5767   0.709   0.781   0.726  0.1020 -0.0443  0.3886
 1923SOL    HW1 5768   0.721   0.873   0.701 -0.5078 -0.3748 -1.2688
 1923SOL    HW2 5769   0.707   0.782   0.821  2.2765  1.3794  0.4914
 1924SOL     OW 5770   3.890   2.992   1.048  0.2463 -0.1360 -0.0930
 1924SOL    HW1 5771   3.869   3.085   1.040 -1.1118 -0.4974 -1.0146
 1924SOL    HW2 5772   3.943   2.973   0.970  0.3949 -0.1697  0.0159
 1925SOL     OW 5773   3.706   1.780   1.657 -0.2460  0.1919 -0.1308
 1925SOL    HW1 5774   3.704   1.699   1.707 -0.0026  0.2736  0.0141
 1925SOL    HW2 5775   3.670   1.846   1.716 -0.5898  0.1608 -0.3033
 1926SOL     OW 5776   0.755   1.500   4.070  0.1723 -0.5632  0.3360
 1926SOL    HW1 5777   0.714   1.429   4.021  0.2306  0.2913 -0.9928
 1926SOL    HW2 5778   0.772   1.463   4.156 -0.5495 -1.8977 -0.0709
 1927SOL     OW 5779   0.180   2.388   0.942 -0.4410 -0.5398 -0.6087
 1927SOL    HW1 5780   0.127   2.308   0.944 -0.5788 -0.4541 -0.7532
 1927SOL    HW2 5781   0.191   2.413   1.034 -0.9727 -0.3506 -0.5919
 1928SOL     OW 5782   2.961   3.055   2.140 -0.0785  0.8323  0.0758
 1928SOL    HW1 5783   2.964   2.983   2.077 -0.2949  0.5752  0.3606
 1928SOL    HW2 5784   2.923   3.128   2.091 -0.4852  0.5569 -0.0177
 1929SOL     OW 5785   2.392   0.138   0.483 -1.2015 -0.4576 -0.0951
 1929SOL    HW1 5786   2.483   0.108   0.470 -0.7086  1.0446 -0.2665
 1929SOL    HW2 5787   2.393   0.179   0.570 -1.4651  0.4190 -0.4976
 1930SOL     OW 5788   0.067   2.134   1.092  0.3180  0.0552  0.4938
 1930SOL    HW1 5789   0.063   2.219   1.137 -1.0698 -0.3632  1.1980
 1930SOL    HW2 5790   0.016   2.147   1.012  0.4616 -0.0022  0.3926
 1931SOL     OW 5791   4.455   3.288   3.927 -0.2816  0.4006  0.1405
 1931SOL    HW1 5792   4.417   3.321   4.009  2.7281  1.4176  1.2744
 1931SOL    HW2 5793   4.380   3.277   3.868 -2.2005  3.3033  1.7858
 1932SOL     OW 5794   3.007   2.469   1.535  0.1716 -0.3159 -0.1965
 1932SOL    HW1 5795   3.083   2.480   1.593 -0.3185  0.8075  0.2735
 1932SOL    HW2 5796   3.001   2.375   1.521  0.4042 -0.6168  1.4583
 1933SOL     OW 5797   4.360   3.267   2.056  0.0868  0.6604  0.4137
 1933SOL    HW1 5798   4.402   3.265   1.971 -0.8076 -2.2137 -0.0747
 1933SOL    HW2 5799   4.266   3.265   2.037 -0.3696  4.1889  1.5080
 1934SOL     OW 5800   1.247   1.203   0.873  0.1887  0.1020  0.0778
 1934SOL    HW1 5801   1.222   1.113   0.891  2.5028 -0.3669  1.3629
 1934SOL    HW2 5802   1.241   1.247   0.957 -1.6482  1.4305 -0.6660
 1935SOL     OW 5803   1.065   4.256   3.123  0.0425 -0.4042 -0.0715
 1935SOL    HW1 5804   1.108   4.338   3.098  0.9258 -0.6443  0.6016
 1935SOL    HW2 5805   1.015   4.231   3.046  0.3133  0.4175 -0.5262
 1936SOL     OW 5806   2.203   0.174   1.003  0.1302  0.2601  0.2766
 1936SOL    HW1 5807   2.141   0.180   0.930 -0.3815 -0.3255  0.6621
 1936SOL    HW2 5808   2.184   0.090   1.045 -0.8408  1.3686  2.2037
 1937SOL     OW 5809   4.034   3.569   3.350 -0.3084 -0.2803  0.1355
 1937SOL    HW1 5810   4.014   3.496   3.291  0.2396  0.5402 -1.1027
 1937SOL    HW2 5811   3.954   3.582   3.400 -0.5696 -1.4180  0.0482
 1938SOL     OW 5812   0.173   2.316   0.061  0.5869 -0.2003  0.1476
 1938SOL    HW1 5813   0.231   2.302   0.136  1.5815 -0.7432 -0.6874
 1938SOL    HW2 5814   0.166   2.229   0.020 -1.0906 -0.2210  0.3953
 1939SOL     OW 5815   3.342   2.086   4.100 -0.1057  0.1118  0.0521
 1939SOL    HW1 5816   3.247   2.083   4.087 -0.0255 -0.4328 -0.4412
 1939SOL    HW2 5817   3.353   2.080   4.195 -0.5599  0.0545  0.1027
 1940SOL     OW 5818   1.466   2.154   1.754  0.2484  0.1856 -0.2818
 1940SOL    HW1 5819   1.448   2.117   1.667  1.6962  1.8051 -1.3464
 1940SOL    HW2 5820   1.383   2.193   1.780  0.4016  2.0481 -2.2344
 1941SOL     OW 5821   3.635   2.202   3.317  0.0816 -0.3230 -0.3922
 1941SOL    HW1 5822   3.666   2.282   3.360 -1.1450 -0.5222  0.9492
 1941SOL    HW2 5823   3.685   2.132   3.360 -1.1684 -0.5248  0.8136
 1942SOL     OW 5824   0.914   0.587   0.811 -0.1471 -0.5410 -0.3078
 1942SOL    HW1 5825   0.829   0.621   0.836 -0.2018 -0.4543 -0.6062
 1942SOL    HW2 5826   0.903   0.492   0.811 -0.4008 -0.5183 -0.8733
 1943SOL     OW 5827   0.280   3.649   0.738 -0.0174  0.1613  0.2514
 1943SOL    HW1 5828   0.365   3.694   0.737 -0.0358  0.1970  0.3517
 1943SOL    HW2 5829   0.217   3.716   0.760  0.0240 -0.0286  0.9889
 1944SOL     OW 5830   1.919   1.205   3.866  0.1057 -0.8695  0.1569
 1944SOL    HW1 5831   1.974   1.236   3.938 -0.0597 -0.2295  0.0194
 1944SOL    HW2 5832   1.935   1.111   3.861  1.4909 -0.6371 -0.1337
 1945SOL     OW 5833   3.474   2.445   1.586  0.0221 -0.3995  0.0642
 1945SOL    HW1 5834   3.522   2.373   1.627  0.1620  0.0025  0.6332
 1945SOL    HW2 5835   3.518   2.459   1.502 -1.5629 -2.6112 -1.2339
 1946SOL     OW 5836   1.741   4.302   1.097  0.2304 -0.4121  0.5120
 1946SOL    HW1 5837   1.671   4.344   1.146  0.1830  0.8689 -0.5680
 1946SOL    HW2 5838   1.779   4.373   1.044  1.1369 -1.4447 -0.2841
 1947SOL     OW 5839   1.491   2.546   4.037 -0.0689 -0.3366  0.0167
 1947SOL    HW1 5840   1.428   2.485   4.077  0.1856  0.0352  1.0230
 1947SOL    HW2 5841   1.472   2.630   4.078  1.4199 -0.3205  0.7562
 1948SOL     OW 5842   4.010   3.398   3.920  0.1701  0.2294  0.2210
 1948SOL    HW1 5843   4.034   3.371   4.008 -0.5806  0.6816  0.5762
 1948SOL    HW2 5844   4.031   3.491   3.916 -0.2654  0.3288  0.1005
 1949SOL     OW 5845   3.231   4.315   1.840  0.0144  0.1711  0.1782
 1949SOL    HW1 5846   3.214   4.399   1.798 -2.4538  0.8008  2.1899
 1949SOL    HW2 5847   3.165   4.256   1.802  0.5387 -0.3780  0.1049
 1950SOL     OW 5848   2.681   3.005   3.435 -0.4798 -0.5976 -0.7144
 1950SOL    HW1 5849   2.696   3.008   3.530 -0.2242  1.1000 -0.7783
 1950SOL    HW2 5850   2.616   3.073   3.419 -0.4591 -0.8160 -1.7908
 1951SOL     OW 5851   3.226   0.634   0.343 -0.0956 -0.1992  0.0125
 1951SOL    HW1 5852   3.301   0.653   0.400 -0.7919 -0.8257  1.1987
 1951SOL    HW2 5853   3.155   0.613   0.405 -1.0800 -0.1918 -1.0915
 1952SOL     OW 5854   0.489   1.415   2.987 -0.1757 -0.6536 -0.0127
 1952SOL    HW1 5855   0.450   1.344   3.039 -0.5463 -1.0083 -0.7628
 1952SOL    HW2 5856   0.467   1.494   3.036 -0.2264 -1.0116  0.5532
 1953SOL     OW 5857   2.725   4.401   1.583 -0.1015 -0.1747 -0.0380
 1953SOL    HW1 5858   2.780   4.469   1.543  0.2936 -0.4745 -0.0074
 1953SOL    HW2 5859   2.744   4.407   1.677  0.3346 -0.6819 -0.0916
 1954SOL     OW 5860   3.769   3.163   2.993  0.1207 -0.0966 -0.5657
 1954SOL    HW1 5861   3.823   3.158   3.071 -2.4203 -0.8730  1.2908
 1954SOL    HW2 5862   3.786   3.081   2.947 -1.7300 -1.8878  1.7045
 1955SOL     OW 5863   2.502   3.052   4.321  0.3823  0.2169  0.1923
 1955SOL    HW1 5864   2.482   3.003   4.401 -0.6091  0.7721  0.2993
 1955SOL    HW2 5865   2.491   2.989   4.250 -2.1776  0.5354  0.2087
 1956SOL     OW 5866   0.574   3.469   4.194 -0.2419  0.2769 -0.0575
 1956SOL    HW1 5867   0.647   3.408   4.185  1.1849  1.9448 -0.2801
 1956SOL    HW2 5868   0.610   3.543   4.242 -1.3577  1.8502 -1.5412
 1957SOL     OW 5869   1.611   0.104   2.155 -0.3982  0.4362  0.5209
 1957SOL    HW1 5870   1.613   0.089   2.249 -1.1738  1.1573  0.6616
 1957SOL    HW2 5871   1.622   0.199   2.145 -0.8571  0.4333 -0.0815
 1958SOL     OW 5872   3.343   1.259   0.081 -0.2616  0.6203  0.2662
 1958SOL    HW1 5873   3.435   1.265   0.053 -0.1116  1.1641  0.8511
 1958SOL    HW2 5874   3.328   1.340   0.130 -0.8181  0.1543  0.8771
 1959SOL     OW 5875   3.521   4.275   1.854 -0.0124  0.3772 -0.0285
 1959SOL    HW1 5876   3.546   4.225   1.932  1.7020 -2.2207 -2.0452
 1959SOL    HW2 5877   3.426   4.280   1.858 -0.0509 -0.7404  1.6356
 1960SOL     OW 5878   4.438   2.385   0.207 -0.0059 -0.1209  0.2973
 1960SOL    HW1 5879   4.505   2.384   0.139  0.1862  1.5411  0.4062
 1960SOL    HW2 5880   4.360   2.348   0.165 -0.7023  3.3013 -1.8135
 1961SOL     OW 5881   4.514   1.689   0.143 -0.9608  0.2142  0.1090
 1961SOL    HW1 5882   4.476   1.605   0.117 -0.0409 -0.0483 -0.4459
 1961SOL    HW2 5883   4.460   1.754   0.098 -0.5616 -0.1666 -0.9753
 1962SOL     OW 5884   3.240   2.872   2.084  0.2422  0.2307 -0.0795
 1962SOL    HW1 5885   3.233   2.859   1.990  4.0509 -1.3810 -0.2824
 1962SOL    HW2 5886   3.281   2.958   2.094  0.9669 -0.1244  0.0383
 1963SOL     OW 5887   3.536   1.621   2.212  0.0192  0.4880 -0.2602
 1963SOL    HW1 5888   3.610   1.585   2.164  0.7201  1.1852  0.2573
 1963SOL    HW2 5889   3.468   1.637   2.146 -0.3401 -1.7777 -0.4912
 1964SOL     OW 5890   1.791   4.031   3.590  0.4996 -0.4111 -0.2464
 1964SOL    HW1 5891   1.819   4.114   3.551 -0.5468  0.6359  1.1425
 1964SOL    HW2 5892   1.716   4.054   3.644 -0.9873 -2.5820 -1.2531
 1965SOL     OW 5893   2.225   0.355   1.761  0.2661 -0.1772  0.2024
 1965SOL    HW1 5894   2.234   0.444   1.794  0.2760  0.6913 -1.9448
 1965SOL    HW2 5895   2.306   0.340   1.713  0.2735 -1.3762  0.5715
 1966SOL     OW 5896   4.132   1.698   2.457 -0.2795 -0.1781 -0.5653
 1966SOL    HW1 5897   4.057   1.649   2.424  1.6968 -3.5797 -0.4634
 1966SOL    HW2 5898   4.139   1.674   2.549  0.0036  1.4304 -0.1254
 1967SOL     OW 5899   1.947   0.897   3.799  0.2301 -0.0274 -0.3016
 1967SOL    HW1 5900   1.996   0.830   3.752  3.0407  1.3089  0.5255
 1967SOL    HW2 5901   1.876   0.921   3.739  1.8266 -0.5734 -2.5510
 1968SOL     OW 5902   3.662   2.109   1.299  0.0773  0.3288  0.3518
 1968SOL    HW1 5903   3.684   2.020   1.328 -1.8027 -0.0503  0.7798
 1968SOL    HW2 5904   3.631   2.098   1.209 -1.4405  0.3073  0.8493
 1969SOL     OW 5905   3.293   2.705   4.462  0.2345  0.0526  0.0575
 1969SOL    HW1 5906   3.342   2.780   4.427  0.4788 -0.0662  0.1449
 1969SOL    HW2 5907   3.349   2.630   4.445 -0.1294 -0.1498 -0.2759
 1970SOL     OW 5908   0.515   2.811   1.936 -0.4436  0.2816 -0.4025
 1970SOL    HW1 5909   0.435   2.768   1.964  1.0409 -2.2862  0.1719
 1970SOL    HW2 5910   0.553   2.753   1.871  0.8692  1.5225 -0.8076
 1971SOL     OW 5911   2.638   1.144   2.527 -0.3127  0.2390  0.4128
 1971SOL    HW1 5912   2.608   1.096   2.450 -1.1463 -2.1724  2.0996
 1971SOL    HW2 5913   2.584   1.223   2.528 -3.6369 -1.8247  0.8493
 1972SOL     OW 5914   2.002   1.350   3.473  0.1034 -0.4047 -0.0980
 1972SOL    HW1 5915   1.978   1.282   3.409  0.4761 -1.4958  0.8897
 1972SOL    HW2 5916   2.019   1.428   3.420  1.5789 -1.5963 -1.4738
 1973SOL     OW 5917   3.881   1.761   3.012 -0.0037  0.4698 -1.1983
 1973SOL    HW1 5918   3.950   1.774   3.077 -0.0615  0.1109 -1.0628
 1973SOL    HW2 5919   3.926   1.764   2.928  0.2303 -0.0857 -1.0980
 1974SOL     OW 5920   0.536   2.339   0.002 -0.2211 -0.0993  0.4474
 1974SOL    HW1 5921   0.596   2.265   0.012  0.2678  0.3744  1.1118
 1974SOL    HW2 5922   0.467   2.323   0.066 -0.4829 -0.3313  0.1091
 1975SOL     OW 5923   1.931   2.288   1.299  0.1002 -0.5491  0.4537
 1975SOL    HW1 5924   1.933   2.354   1.368 -1.6772  1.2565 -1.0750
 1975SOL    HW2 5925   2.022   2.278   1.271  0.3377  2.1838 -0.0310
 1976SOL     OW 5926   2.993   2.910   0.549 -0.5971 -0.3304 -0.6966
 1976SOL    HW1 5927   3.085   2.895   0.530 -0.0873  2.2559 -0.6509
 1976SOL    HW2 5928   2.967   2.836   0.604  1.9717 -0.1903  0.8535
 1977SOL     OW 5929   2.495   0.994   3.224 -0.3117 -0.0716 -0.3931
 1977SOL    HW1 5930   2.560   0.998   3.294  0.2253 -2.2428 -0.6664
 1977SOL    HW2 5931   2.470   1.085   3.208  0.6895  0.5955  1.5372
 1978SOL     OW 5932   3.008   1.294   2.466  0.2369  0.1874 -0.1955
 1978SOL    HW1 5933   3.070   1.296   2.538  0.3765 -2.7119 -0.1098
 1978SOL    HW2 5934   3.058   1.262   2.391  0.1907  3.4672 -1.8366
 1979SOL     OW 5935   2.226   0.016   1.548  0.6557 -0.2970  0.5345
 1979SOL    HW1 5936   2.232  -0.075   1.520  1.4358 -0.0324 -0.2076
 1979SOL    HW2 5937   2.261   0.066   1.474  0.6623  0.5727  1.1113
 1980SOL     OW 5938   0.323   0.854   4.045 -0.2861  0.1753  0.0549
 1980SOL    HW1 5939   0.258   0.792   4.014  0.7038 -0.8280 -0.0482
 1980SOL    HW2 5940   0.377   0.804   4.106  0.1134  1.1203  0.5003
 1981SOL     OW 5941   2.849   3.253   3.321  0.8178 -0.3738  0.1930
 1981SOL    HW1 5942   2.772   3.288   3.277  0.3148 -0.1118  1.2583
 1981SOL    HW2 5943   2.818   3.175   3.366  1.5471 -1.2148 -0.7120
 1982SOL     OW 5944   2.070   4.008   1.520 -0.5342 -0.1464 -0.8964
 1982SOL    HW1 5945   2.101   3.954   1.447 -0.2079 -2.2057  0.6991
 1982SOL    HW2 5946   2.141   4.007   1.583 -1.8002 -0.5689  0.5757
 1983SOL     OW 5947   3.334   1.824   3.265  0.4494 -0.0857 -0.0603
 1983SOL    HW1 5948   3.256   1.858   3.222  0.4650 -0.5643 -0.4778
 1983SOL    HW2 5949   3.373   1.765   3.200 -0.1830 -1.7721  1.0278
 1984SOL     OW 5950   2.540   1.015   0.069 -0.2232  0.7934 -0.2481
 1984SOL    HW1 5951   2.476   1.082   0.093  0.3105  1.3526 -0.3622
 1984SOL    HW2 5952   2.625   1.057   0.081  0.1241  0.0805 -0.1687
 1985SOL     OW 5953   2.794   2.583   2.635 -0.2927  0.7580 -0.3549
 1985SOL    HW1 5954   2.721   2.607   2.578 -1.2690 -0.7374  0.2250
 1985SOL    HW2 5955   2.820   2.666   2.676  1.7439  2.3678 -4.2782
 1986SOL     OW 5956   1.473   0.870   0.203 -0.2458 -0.5569  0.3851
 1986SOL    HW1 5957   1.413   0.943   0.216  2.7664  2.3394 -0.5386
 1986SOL    HW2 5958   1.477   0.859   0.108  1.5182  0.1814  0.3368
 1987SOL     OW 5959   1.336   2.501   1.240 -0.1078 -0.4921 -0.2381
 1987SOL    HW1 5960   1.304   2.420   1.201  0.4965 -0.7488 -0.2000
 1987SOL    HW2 5961   1.296   2.503   1.327 -0.1965 -0.6939 -0.2746
 1988SOL     OW 5962   1.597   3.253   2.255  0.1942  0.1716 -0.4628
 1988SOL    HW1 5963   1.663   3.222   2.191 -0.1651  1.3467 -1.4398
 1988SOL    HW2 5964   1.646   3.261   2.337  0.5909 -1.7067 -0.4676
 1989SOL     OW 5965   3.458   3.366   0.182 -0.5524  0.1545  0.4335
 1989SOL    HW1 5966   3.513   3.290   0.165 -2.1273 -1.4135  1.9557
 1989SOL    HW2 5967   3.473   3.388   0.274 -1.2879  0.6837  0.4445
 1990SOL     OW 5968   1.519   2.826   4.407  0.3247 -0.2678 -0.2412
 1990SOL    HW1 5969   1.610   2.841   4.433  0.0144  0.2726  0.5540
 1990SOL    HW2 5970   1.498   2.740   4.444  0.5827 -0.5091 -0.6435
 1991SOL     OW 5971   1.161   1.478   3.520 -0.1972 -0.3018  0.2926
 1991SOL    HW1 5972   1.224   1.540   3.556  0.5905 -0.8992 -0.0140
 1991SOL    HW2 5973   1.085   1.483   3.578 -1.1494  2.6516 -1.0205
 1992SOL     OW 5974   1.497   0.114   4.183 -0.5248  0.0324 -0.0665
 1992SOL    HW1 5975   1.410   0.101   4.144  0.0215 -0.6855 -1.0786
 1992SOL    HW2 5976   1.511   0.036   4.236 -0.0821 -0.3289 -0.7097
 1993SOL     OW 5977   4.453   1.052   3.856 -0.6796 -0.5768 -0.2516
 1993SOL    HW1 5978   4.535   1.004   3.849 -0.6420 -0.2575 -3.3750
 1993SOL    HW2 5979   4.464   1.108   3.933  1.1354 -2.0739  0.6466
 1994SOL     OW 5980   1.561   3.899   1.265 -0.0776 -0.0699 -0.4642
 1994SOL    HW1 5981   1.512   3.819   1.285  0.3509  0.0035  1.0160
 1994SOL    HW2 5982   1.497   3.957   1.223 -0.7141 -0.7263 -0.4254
 1995SOL     OW 5983   1.403   2.784   4.169 -0.3266 -0.0117 -0.1160
 1995SOL    HW1 5984   1.318   2.828   4.176  0.1047  1.2581 -2.1360
 1995SOL    HW2 5985   1.443   2.796   4.255 -1.5172  0.7974  0.3612
 1996SOL     OW 5986   2.868   3.657   2.617 -0.3265 -0.0620  0.4942
 1996SOL    HW1 5987   2.803   3.589   2.635 -1.7085  1.1707  0.3180
 1996SOL    HW2 5988   2.857   3.677   2.524  0.1405  0.3476  0.5223
 1997SOL     OW 5989   2.540   3.720   3.448 -0.3852 -0.4674 -0.1426
 1997SOL    HW1 5990   2.602   3.678   3.508 -0.2866 -1.6946 -1.0682
 1997SOL    HW2 5991   2.454   3.696   3.482 -0.3335 -0.4914 -0.0288
 1998SOL     OW 5992   2.169   2.688   3.183  0.0932 -0.5865 -0.2961
 1998SOL    HW1 5993   2.184   2.608   3.133  0.4037  0.2212 -1.5377
 1998SOL    HW2 5994   2.254   2.732   3.183 -0.3332  0.2579 -0.5651
 1999SOL     OW 5995   2.278   3.831   1.649  0.0877  0.6053  0.3768
 1999SOL    HW1 5996   2.261   3.756   1.592  0.2538  1.5236 -0.9273
 1999SOL    HW2 5997   2.212   3.825   1.718 -1.0485  0.2351 -0.7103
 2000SOL     OW 5998   0.065   0.240   3.360  0.5665 -0.1288  0.5172
 2000SOL    HW1 5999   0.018   0.287   3.291  0.1754  1.2357  1.6687
 2000SOL    HW2 6000   0.020   0.264   3.441  3.0673  1.1339  1.6738
 2001SOL     OW 6001   1.603   0.104   1.790 -0.0618  0.1307  0.2249
 2001SOL    HW1 6002   1.562   0.034   1.841  0.8993 -0.6130  0.0266
 2001SOL    HW2 6003   1.666   0.058   1.734 -1.3347  0.8650 -1.9354
 2002SOL     OW 6004   1.078   0.639   1.600  0.3655 -0.3769  0.5099
 2002SOL    HW1 6005   1.041   0.558   1.567  0.5216 -0.2096 -0.0961
 2002SOL    HW2 6006   1.104   0.619   1.690  0.2281 -0.9405  0.4281
 2003SOL     OW 6007   1.882   1.069   0.365  0.1288 -0.4878  0.1944
 2003SOL    HW1 6008   1.844   1.156   0.373  0.7984 -0.0595 -1.0431
 2003SOL    HW2 6009   1.836   1.017   0.431 -0.3240  0.7722  0.9128
 2004SOL     OW 6010   3.849   2.755   2.615 -0.3975  0.1473 -0.0420
 2004SOL    HW1 6011   3.932   2.776   2.659 -0.6663 -0.7234  0.9157
 2004SOL    HW2 6012   3.851   2.808   2.535 -0.4533  2.7511  1.5598
 2005SOL     OW 6013   0.571   2.949   0.709 -0.0574  0.0413  0.0599
 2005SOL    HW1 6014   0.548   3.031   0.667 -0.7808 -0.9222 -1.5183
 2005SOL    HW2 6015   0.487   2.913   0.738  0.2044 -0.3265  0.3743
 2006SOL     OW 6016   4.303   1.235   0.671 -0.3065  0.0843  0.3328
 2006SOL    HW1 6017   4.382   1.286   0.690 -0.2475 -0.7847  2.6865
 2006SOL    HW2 6018   4.297   1.172   0.742 -1.8898 -1.4039 -1.0253
 2007SOL     OW 6019   0.008   2.434   2.402  0.6045  0.4082  0.1381
 2007SOL    HW1 6020  -0.027   2.523   2.398 -0.7959 -0.1559 -1.2289
 2007SOL    HW2 6021   0.103   2.444   2.393  0.4660  1.7535  0.0436
 2008SOL     OW 6022   4.212   3.241   2.495 -0.6691  0.4524 -0.8459
 2008SOL    HW1 6023   4.230   3.332   2.471 -0.3407  0.4674 -0.5517
 2008SOL    HW2 6024   4.297   3.197   2.492 -0.6837  0.3560 -0.1469
 2009SOL     OW 6025   3.264   2.223   0.835  0.1161  0.0471 -0.1543
 2009SOL    HW1 6026   3.219   2.164   0.896  0.5663  0.9863  1.1462
 2009SOL    HW2 6027   3.198   2.244   0.769 -1.1000  0.6480  1.1964
 2010SOL     OW 6028   2.830   1.480   2.396  0.4136 -0.0064 -0.1495
 2010SOL    HW1 6029   2.888   1.405   2.411  0.9422  0.1598 -1.2874
 2010SOL    HW2 6030   2.817   1.482   2.301  1.5496  2.1683 -0.3305
 2011SOL     OW 6031   2.355   3.307   4.306  0.2771  0.2000 -0.4633
 2011SOL    HW1 6032   2.261   3.290   4.298  0.1925  0.2581  0.3441
 2011SOL    HW2 6033   2.393   3.225   4.336  0.5649  0.0374 -1.2260
 2012SOL     OW 6034   1.946   3.663   2.599  0.3788 -0.9209  0.6574
 2012SOL    HW1 6035   1.948   3.656   2.504  0.5258 -1.0717  0.6716
 2012SOL    HW2 6036   1.869   3.716   2.618  0.5483 -0.5972  0.4373
 2013SOL     OW 6037   1.254   2.109   1.362 -0.0201  0.1163 -0.1733
 2013SOL    HW1 6038   1.174   2.076   1.321  0.4386  0.5742 -1.4856
 2013SOL    HW2 6039   1.322   2.095   1.296  1.1016 -0.7680  1.1208
 2014SOL     OW 6040   4.442   3.512   2.859  0.4500  0.1324 -0.0060
 2014SOL    HW1 6041   4.536   3.501   2.848  0.4620  0.5673 -0.3508
 2014SOL    HW2 6042   4.403   3.465   2.785  0.3137 -1.6047  1.1208
 2015SOL     OW 6043   4.344   0.792   3.973  0.2333 -0.1165 -0.0276
 2015SOL    HW1 6044   4.433   0.783   3.940 -0.1362  3.4534 -2.6080
 2015SOL    HW2 6045   4.354   0.835   4.058  0.9652 -1.2343  0.4738
 2016SOL     OW 6046   4.213   4.189   3.817 -0.1265  0.2803  0.3531
 2016SOL    HW1 6047   4.209   4.181   3.721 -1.9916  1.1642  0.3222
 2016SOL    HW2 6048   4.235   4.101   3.847  1.3954  0.1749 -0.8971
 2017SOL     OW 6049   0.234   1.991   0.924  0.1365 -0.0457  0.5499
 2017SOL    HW1 6050   0.180   1.946   0.860  0.5880 -0.4796  0.4703
 2017SOL    HW2 6051   0.172   2.024   0.989 -0.2339 -0.3885  0.3725
 2018SOL     OW 6052   2.104   2.199   0.313  0.3154 -0.0344 -0.6580
 2018SOL    HW1 6053   2.194   2.211   0.283  0.0211 -0.4022 -1.7055
 2018SOL    HW2 6054   2.080   2.112   0.282 -0.5742  0.2609 -0.8039
 2019SOL     OW 6055   4.114   2.966   0.250 -0.0967  0.4936  0.3657
 2019SOL    HW1 6056   4.153   3.047   0.283  1.0718  0.2181 -0.2985
 2019SOL    HW2 6057   4.181   2.929   0.192 -0.3678 -1.2392  1.1017
 2020SOL     OW 6058   3.441   1.894   0.980  0.3364  0.5119 -0.2486
 2020SOL    HW1 6059   3.466   1.877   0.889 -0.6399 -0.4422 -0.3700
 2020SOL    HW2 6060   3.495   1.834   1.031 -1.5896 -1.6468 -0.5201
 2021SOL     OW 6061   0.316   0.267   3.515  0.1016  0.4265 -0.0998
 2021SOL    HW1 6062   0.284   0.317   3.590  1.0580 -0.1631  0.7215
 2021SOL    HW2 6063   0.246   0.274   3.450 -1.8461 -0.9885  1.7126
 2022SOL     OW 6064   3.016   3.787   2.161 -0.0647  0.1336 -0.2222
 2022SOL    HW1 6065   3.094   3.818   2.115  0.8463  1.2129  1.9026
 2022SOL    HW2 6066   2.964   3.866   2.178 -0.4770 -0.2538  0.3979
 2023SOL     OW 6067   4.472   3.174   0.056 -0.1442 -0.2018  0.2004
 2023SOL    HW1 6068   4.382   3.203   0.062 -0.5835 -1.4323 -0.1112
 2023SOL    HW2 6069   4.500   3.162   0.147  0.0303  1.0491  0.3353
 2024SOL     OW 6070   0.842   0.974   0.045 -0.2647  0.1377 -0.3174
 2024SOL    HW1 6071   0.866   1.056   0.001  0.5088 -0.4547 -1.0225
 2024SOL    HW2 6072   0.925   0.939   0.077 -0.4356 -0.9529 -1.0432
 2025SOL     OW 6073   0.421   0.334   2.617 -0.6939  0.3892 -0.3230
 2025SOL    HW1 6074   0.479   0.405   2.644 -0.0286 -0.2533 -0.0533
 2025SOL    HW2 6075   0.408   0.281   2.696 -1.1592  0.1870 -0.5296
 2026SOL     OW 6076   2.921   1.505   4.355  0.0483 -0.2863  0.4887
 2026SOL    HW1 6077   2.891   1.525   4.444  1.0753 -0.6559  0.9287
 2026SOL    HW2 6078   2.847   1.460   4.315 -1.2133  1.6543  0.4607
 2027SOL     OW 6079   3.270   1.884   1.813  0.1260 -0.7169  0.0353
 2027SOL    HW1 6080   3.250   1.904   1.904  0.3280  2.9391 -0.5951
 2027SOL    HW2 6081   3.185   1.880   1.770  0.1224 -0.3108  0.0056
 2028SOL     OW 6082   3.229   3.017   0.721  0.5777  0.2417 -0.7231
 2028SOL    HW1 6083   3.256   3.103   0.753  3.0452 -0.9597  0.7566
 2028SOL    HW2 6084   3.146   2.999   0.766  0.2149  1.6735 -0.7766
 2029SOL     OW 6085   1.672   1.371   1.439  0.5987 -0.7401 -0.0985
 2029SOL    HW1 6086   1.733   1.445   1.428  1.6994 -1.9185 -3.0480
 2029SOL    HW2 6087   1.628   1.365   1.354 -0.5346 -2.5592  0.5844
 2030SOL     OW 6088   2.567   3.470   2.301 -0.2248  0.3521  0.5587
 2030SOL    HW1 6089   2.601   3.523   2.374  1.0677  0.5298 -0.1490
 2030SOL    HW2 6090   2.642   3.459   2.242 -1.1173 -0.2161 -0.5031
 2031SOL     OW 6091   3.621   4.107   0.344  0.4220  0.1334 -0.0758
 2031SOL    HW1 6092   3.715   4.125   0.352  1.0734 -3.1630  1.2013
 2031SOL    HW2 6093   3.617   4.020   0.305 -2.2146  0.7441 -1.3883
 2032SOL     OW 6094   0.418   0.290   3.205  0.1576  0.1956 -0.5425
 2032SOL    HW1 6095   0.502   0.283   3.249  0.7644  2.2507 -1.2682
 2032SOL    HW2 6096   0.387   0.199   3.197  1.4760 -0.4617  1.2378
 2033SOL     OW 6097   3.117   0.437   1.188  0.4172  0.1375 -0.0192
 2033SOL    HW1 6098   3.036   0.420   1.140 -0.5439  2.4640  0.6549
 2033SOL    HW2 6099   3.116   0.374   1.260 -0.3775 -0.3783 -0.4649
 2034SOL     OW 6100   0.193   3.824   3.341 -0.5261 -0.6594 -0.3464
 2034SOL    HW1 6101   0.148   3.761   3.397  0.4938 -0.3448  0.8774
 2034SOL    HW2 6102   0.286   3.807   3.356 -0.2353  0.5052 -0.7168
 2035SOL     OW 6103   1.252   1.822   4.318 -0.2107 -0.0094  0.4339
 2035SOL    HW1 6104   1.322   1.885   4.301  0.0084  0.1196  1.6781
 2035SOL    HW2 6105   1.177   1.855   4.268  0.0917  0.8792  0.5466
 2036SOL     OW 6106   0.272   4.306   1.869 -0.3552  1.0703  0.1061
 2036SOL    HW1 6107   0.225   4.371   1.816 -1.9752  0.3795  0.6140
 2036SOL    HW2 6108   0.252   4.223   1.827 -0.6701  0.6351  1.0912
 2037SOL     OW 6109   3.987   0.486   0.808  0.3816 -0.0295  0.3423
 2037SOL    HW1 6110   4.012   0.525   0.724  2.9637  0.3841  1.2128
 2037SOL    HW2 6111   4.003   0.554   0.873 -1.7108 -0.2963  1.2172
 2038SOL     OW 6112   0.710   3.366   0.110  0.6453  0.1662 -0.3796
 2038SOL    HW1 6113   0.685   3.277   0.083 -1.3750  0.2896  0.9216
 2038SOL    HW2 6114   0.751   3.355   0.195 -0.2567  0.5285  0.1119
 2039SOL     OW 6115   0.652   3.015   0.960 -0.0381 -0.1774 -0.0141
 2039SOL    HW1 6116   0.691   3.102   0.955 -0.8380  0.2868  1.4499
 2039SOL    HW2 6117   0.653   2.984   0.869  2.3079  0.4177 -0.2612
 2040SOL     OW 6118   1.162   1.364   0.106  0.3993  0.2349 -0.3492
 2040SOL    HW1 6119   1.208   1.434   0.060  2.2186 -1.4902 -1.3082
 2040SOL    HW2 6120   1.187   1.375   0.198 -0.1844  1.4401 -0.3204
 2041SOL     OW 6121   3.783   3.185   2.257 -0.1065 -0.1435  0.2426
 2041SOL    HW1 6122   3.792   3.215   2.348 -3.4666  0.6356  0.4554
 2041SOL    HW2 6123   3.848   3.236   2.209 -1.2423  2.8547  1.6183
 2042SOL     OW 6124   4.252   2.042   3.541  0.0444  0.1241 -0.4580
 2042SOL    HW1 6125   4.166   2.082   3.532 -0.8265 -1.3402  0.9498
 2042SOL    HW2 6126   4.289   2.045   3.453 -1.9060 -0.2481 -1.3393
 2043SOL     OW 6127   0.154   1.937   1.274  0.2453 -0.0756  0.0549
 2043SOL    HW1 6128   0.142   2.013   1.217 -0.5133 -0.7214 -0.6722
 2043SOL    HW2 6129   0.133   1.862   1.218  2.2037 -0.9348  0.3802
 2044SOL     OW 6130   0.036   0.721   2.803  0.1775 -0.7004  0.1131
 2044SOL    HW1 6131   0.059   0.643   2.751  0.1645 -0.2454 -0.5828
 2044SOL    HW2 6132  -0.050   0.700   2.840  0.4995 -1.3145  0.5387
 2045SOL     OW 6133   4.384   2.721   2.750  0.3705  0.5424 -0.6934
 2045SOL    HW1 6134   4.430   2.638   2.760 -0.5787 -0.1347 -1.6706
 2045SOL    HW2 6135   4.298   2.696   2.714  0.6977  2.0499 -2.7153
 2046SOL     OW 6136   1.512   4.351   0.665 -0.1849  0.4288 -0.1082
 2046SOL    HW1 6137   1.599   4.383   0.641  0.6751 -2.9650 -2.4289
 2046SOL    HW2 6138   1.528   4.291   0.738 -0.3103 -0.9746 -1.1795
 2047SOL     OW 6139   3.524   3.344   2.808 -0.0820  0.5135 -0.4084
 2047SOL    HW1 6140   3.446   3.384   2.845 -0.5313  0.0391 -0.8290
 2047SOL    HW2 6141   3.596   3.381   2.858 -0.5818  0.8961  0.0356
 2048SOL     OW 6142   1.160   3.366   1.883  0.1836  0.1820 -0.1535
 2048SOL    HW1 6143   1.114   3.282   1.889 -0.2226  0.0692 -3.1570
 2048SOL    HW2 6144   1.212   3.359   1.804  0.9093  2.4319  0.0607
 2049SOL     OW 6145   0.727   3.881   3.559  0.2599 -0.4741  0.0935
 2049SOL    HW1 6146   0.819   3.897   3.580  0.3563 -1.8669  0.8483
 2049SOL    HW2 6147   0.721   3.786   3.551 -0.9697 -0.3483 -0.6945
 2050SOL     OW 6148   2.832   3.178   0.835  0.4272  0.4512 -0.2789
 2050SOL    HW1 6149   2.854   3.241   0.903  0.3784 -1.3242  1.4956
 2050SOL    HW2 6150   2.909   3.121   0.829  0.2896  0.3578 -1.4864
 2051SOL     OW 6151   0.561   4.079   1.826  0.6276 -0.3010  0.1096
 2051SOL    HW1 6152   0.550   4.143   1.896 -1.1498 -0.8260  0.3491
 2051SOL    HW2 6153   0.591   4.000   1.870  2.6318  0.2558 -0.1625
 2052SOL     OW 6154   4.213   3.257   3.801  0.3757  0.4500 -0.2453
 2052SOL    HW1 6155   4.184   3.171   3.771  0.1568  0.4295  0.0217
 2052SOL    HW2 6156   4.136   3.295   3.842  0.6397  0.5292  0.1768
 2053SOL     OW 6157   3.404   2.985   1.623  0.1408  0.2596 -0.1836
 2053SOL    HW1 6158   3.391   3.075   1.592 -1.0114  0.7862  1.7017
 2053SOL    HW2 6159   3.399   2.932   1.543  1.0671  1.8531 -1.3694
 2054SOL     OW 6160   2.844   3.282   4.116 -0.0618 -0.2528  0.6622
 2054SOL    HW1 6161   2.874   3.200   4.155 -1.6142 -1.3220 -0.2514
 2054SOL    HW2 6162   2.818   3.336   4.190 -0.3150 -1.1369  1.2337
 2055SOL     OW 6163   3.947   0.806   2.580  0.3215 -0.7990  0.1194
 2055SOL    HW1 6164   3.858   0.793   2.611  0.7945 -1.1465  1.4052
 2055SOL    HW2 6165   3.950   0.762   2.496 -0.3210 -2.1099  0.7556
 2056SOL     OW 6166   2.795   0.277   3.292  0.2015  0.2769 -0.2069
 2056SOL    HW1 6167   2.780   0.278   3.386  2.0868  0.3499  0.1458
 2056SOL    HW2 6168   2.764   0.362   3.261  1.1235  0.9631  0.6651
 2057SOL     OW 6169   3.636   0.789   1.109 -0.6520  0.5390  0.1348
 2057SOL    HW1 6170   3.648   0.718   1.171 -0.4256  0.5422  0.0959
 2057SOL    HW2 6171   3.725   0.812   1.081 -0.7736  0.2707 -0.4889
 2058SOL     OW 6172   3.648   3.528   2.612 -0.4849 -0.6611  0.3856
 2058SOL    HW1 6173   3.657   3.460   2.679  0.5917 -0.4104  0.5200
 2058SOL    HW2 6174   3.647   3.610   2.661 -1.0687 -0.5454  0.1800
 2059SOL     OW 6175   0.250   1.706   2.623  0.2010 -0.3504 -0.0569
 2059SOL    HW1 6176   0.165   1.748   2.608  1.0405  0.8767 -1.7799
 2059SOL    HW2 6177   0.232   1.637   2.686 -2.6935 -2.0526 -2.4609
 2060SOL     OW 6178   0.584   0.190   2.152 -0.3551  0.2139  0.1308
 2060SOL    HW1 6179   0.565   0.249   2.079  1.9224 -1.0874 -1.6078
 2060SOL    HW2 6180   0.510   0.204   2.212 -1.3238  2.7673 -1.4495
 2061SOL     OW 6181   0.893   3.767   1.120 -0.1035  0.1144 -0.7940
 2061SOL    HW1 6182   0.976   3.738   1.159 -1.7588 -2.3528  1.2002
 2061SOL    HW2 6183   0.904   3.749   1.026  1.0060 -1.9069 -0.3505
 2062SOL     OW 6184   2.322   1.214   2.408  0.3414 -0.4490 -0.1014
 2062SOL    HW1 6185   2.376   1.287   2.438  0.7896 -1.0780  0.6432
 2062SOL    HW2 6186   2.334   1.213   2.313  0.4528  0.3405 -0.1034
 2063SOL     OW 6187   0.140   4.498   2.834  0.0717  0.2730 -0.0687
 2063SOL    HW1 6188   0.216   4.476   2.888 -0.0612  0.9255  0.3948
 2063SOL    HW2 6189   0.077   4.429   2.851  0.7718 -0.6156 -0.9178
 2064SOL     OW 6190   4.317   0.893   0.381  0.4101  0.3706  0.1627
 2064SOL    HW1 6191   4.316   0.857   0.292 -1.7842  1.9233 -0.5371
 2064SOL    HW2 6192   4.321   0.988   0.368 -1.3435  0.6926  1.6571
 2065SOL     OW 6193   0.871   4.043   1.908 -0.0497 -0.4824  0.1300
 2065SOL    HW1 6194   0.927   4.080   1.976  0.8444 -0.5879 -0.5373
 2065SOL    HW2 6195   0.860   3.951   1.934  1.6858 -0.9735 -0.7234
 2066SOL     OW 6196   1.794   2.936   3.370  0.0115 -0.0419 -0.5877
 2066SOL    HW1 6197   1.714   2.886   3.387  0.0602 -0.1042 -0.5423
 2066SOL    HW2 6198   1.790   3.009   3.432 -1.4769  1.6375 -2.5300
 2067SOL     OW 6199   3.521   0.176   0.331  0.0928 -0.8930  0.7374
 2067SOL    HW1 6200   3.496   0.102   0.387 -0.7077 -0.5324  0.8686
 2067SOL    HW2 6201   3.464   0.247   0.359  0.4413 -0.3932  0.1942
 2068SOL     OW 6202   2.867   2.967   4.248 -0.1154 -0.5303 -0.2789
 2068SOL    HW1 6203   2.948   3.008   4.275 -1.7586  2.2443  0.8305
 2068SOL    HW2 6204   2.882   2.940   4.157  2.3743 -1.2402  0.2813
 2069SOL     OW 6205   0.291   0.373   0.396 -0.4214 -0.4807 -0.6588
 2069SOL    HW1 6206   0.254   0.455   0.362 -2.7879 -1.6996 -1.2629
 2069SOL    HW2 6207   0.290   0.385   0.491 -3.0542 -0.6117 -0.5820
 2070SOL     OW 6208   0.424   1.832   2.052 -0.1847  0.3399  0.1339
 2070SOL    HW1 6209   0.362   1.853   1.983  0.0872  0.6588 -0.0162
 2070SOL    HW2 6210   0.371   1.832   2.132 -0.8088 -1.5804 -0.2403
 2071SOL     OW 6211   2.468   2.886   0.044  0.4239  0.5234 -0.5737
 2071SOL    HW1 6212   2.410   2.811   0.060 -0.2297  0.7223 -1.8375
 2071SOL    HW2 6213   2.554   2.846   0.027  0.2970  0.1252 -0.2997
 2072SOL     OW 6214   2.849   3.536   2.996 -0.3501  0.1409  1.1999
 2072SOL    HW1 6215   2.818   3.476   2.928 -1.2056  2.1888 -0.3553
 2072SOL    HW2 6216   2.769   3.562   3.043 -1.1233  4.0712 -1.6830
 2073SOL     OW 6217   0.525   3.927   4.121  0.3812  0.4895  0.0163
 2073SOL    HW1 6218   0.506   3.992   4.055 -0.1716 -0.5860 -0.9180
 2073SOL    HW2 6219   0.614   3.897   4.101  1.0403  1.6578  1.0741
 2074SOL     OW 6220   0.381   2.621   1.598 -0.0146 -0.1649  0.1988
 2074SOL    HW1 6221   0.429   2.682   1.654  0.5978 -1.5126  1.1920
 2074SOL    HW2 6222   0.434   2.615   1.518  0.1210  0.3091  0.2540
 2075SOL     OW 6223   4.146   2.069   4.071  0.0948 -0.0623  0.4811
 2075SOL    HW1 6224   4.114   2.038   3.986  0.4208  1.0616 -0.0601
 2075SOL    HW2 6225   4.235   2.036   4.076  0.5345  0.9742 -0.2149
 2076SOL     OW 6226   4.153   2.333   1.942  0.2129  0.2846  0.2792
 2076SOL    HW1 6227   4.076   2.307   1.993  0.8944  1.6094  2.0686
 2076SOL    HW2 6228   4.227   2.325   2.002  0.9157  2.9482 -0.0710
 2077SOL     OW 6229   0.586   1.794   2.907  0.5876 -0.6413 -0.6672
 2077SOL    HW1 6230   0.618   1.730   2.971 -0.8573 -0.2704  0.4807
 2077SOL    HW2 6231   0.662   1.816   2.855  1.5683 -1.7919  0.2239
 2078SOL     OW 6232   2.163   1.873   0.741 -0.4148  0.1315 -0.4009
 2078SOL    HW1 6233   2.079   1.865   0.787 -0.1877 -0.7582 -0.1256
 2078SOL    HW2 6234   2.228   1.880   0.811  0.0397 -2.1920 -0.4994
 2079SOL     OW 6235   4.149   0.930   3.279  0.4468 -0.0185  0.0595
 2079SOL    HW1 6236   4.167   0.846   3.238  0.1319 -0.9984  1.8335
 2079SOL    HW2 6237   4.171   0.995   3.212  0.2683 -1.5029 -1.5073
 2080SOL     OW 6238   2.618   2.325   2.634 -0.6645  0.2786 -0.0650
 2080SOL    HW1 6239   2.673   2.402   2.649  0.0329 -0.1615 -0.3092
 2080SOL    HW2 6240   2.616   2.315   2.539 -1.5481  0.5538 -0.0812
 2081SOL     OW 6241   1.305   3.541   3.164 -0.3480  0.4936 -0.2290
 2081SOL    HW1 6242   1.373   3.513   3.225 -1.2598 -0.4412  0.4110
 2081SOL    HW2 6243   1.308   3.636   3.165  1.1672  0.4645 -0.4822
 2082SOL     OW 6244   0.467   3.879   3.756 -0.5275 -0.2902  0.4082
 2082SOL    HW1 6245   0.544   3.894   3.702 -0.7680 -0.2474  0.0704
 2082SOL    HW2 6246   0.501   3.861   3.843 -0.1195 -0.7810  0.1492
 2083SOL     OW 6247   3.449   1.033   2.620  0.3196  0.0767  0.2660
 2083SOL    HW1 6248   3.542   1.049   2.605 -0.1231  1.8535 -0.8779
 2083SOL    HW2 6249   3.441   1.027   2.715  1.3787  1.5550  0.4827
 2084SOL     OW 6250   1.674   2.293   2.532 -0.6892 -0.1503 -0.2811
 2084SOL    HW1 6251   1.756   2.329   2.498 -1.7824 -0.4464 -3.6706
 2084SOL    HW2 6252   1.687   2.198   2.533 -1.4475 -0.3428 -2.5683
 2085SOL     OW 6253   3.552   3.658   1.154  0.2590 -0.1579  0.0319
 2085SOL    HW1 6254   3.630   3.685   1.203  0.2283 -0.3838  0.2083
 2085SOL    HW2 6255   3.580   3.657   1.063  0.2326  0.5659  0.0099
 2086SOL     OW 6256   0.099   4.470   3.599  0.2823  0.2633  0.0642
 2086SOL    HW1 6257   0.164   4.418   3.646 -0.0779 -1.7173 -1.4797
 2086SOL    HW2 6258   0.114   4.450   3.507 -1.9139  0.4829 -0.4000
 2087SOL     OW 6259   1.843   1.301   1.640  0.4001 -0.0709  0.9002
 2087SOL    HW1 6260   1.804   1.342   1.717  0.2430  1.5928 -0.0113
 2087SOL    HW2 6261   1.776   1.310   1.572  1.0448 -0.3097  0.2193
 2088SOL     OW 6262   1.869   4.192   1.820  0.2300  0.5267 -0.3690
 2088SOL    HW1 6263   1.875   4.103   1.787  0.5842  0.3238  0.2168
 2088SOL    HW2 6264   1.801   4.234   1.767 -0.4547 -0.3072 -0.1625
 2089SOL     OW 6265   1.468   1.447   2.437  0.4016 -0.4947  0.2979
 2089SOL    HW1 6266   1.382   1.464   2.400  0.9893  2.6100  0.0838
 2089SOL    HW2 6267   1.457   1.460   2.531  0.4202 -1.1526  0.3931
 2090SOL     OW 6268   3.375   1.681   0.764 -0.2413  0.1724  0.3525
 2090SOL    HW1 6269   3.467   1.664   0.779 -0.5838 -1.0468  1.1273
 2090SOL    HW2 6270   3.372   1.718   0.675  0.9203 -0.2207  0.1367
 2091SOL     OW 6271   1.556   1.011   1.989  0.4483 -0.1006 -0.0929
 2091SOL    HW1 6272   1.555   1.085   2.049 -0.6357  0.7018 -1.0531
 2091SOL    HW2 6273   1.617   0.949   2.028 -0.7095  0.0853  2.2076
 2092SOL     OW 6274   1.438   0.435   0.855  0.4072 -0.8113 -0.5257
 2092SOL    HW1 6275   1.417   0.395   0.771 -0.4608 -1.7302  0.1033
 2092SOL    HW2 6276   1.376   0.506   0.864 -0.5142 -1.6528 -0.0129
 2093SOL     OW 6277   0.615   1.163   1.068 -0.4787  0.2669 -0.0451
 2093SOL    HW1 6278   0.681   1.109   1.025  0.6163  2.8977 -1.9250
 2093SOL    HW2 6279   0.651   1.178   1.156  0.3646 -0.1138 -0.3094
 2094SOL     OW 6280   3.596   3.522   3.103  0.1678 -0.0129  0.4704
 2094SOL    HW1 6281   3.543   3.600   3.121 -1.1493 -1.0167  1.0981
 2094SOL    HW2 6282   3.678   3.556   3.067 -0.3419  1.6595  0.8262
 2095SOL     OW 6283   0.318   1.523   3.367 -0.5328 -0.0920 -0.4193
 2095SOL    HW1 6284   0.247   1.483   3.418 -0.2441 -0.4709 -0.3119
 2095SOL    HW2 6285   0.394   1.468   3.384  0.0123  0.8164  0.1540
 2096SOL     OW 6286   1.741   1.494   4.236 -0.3082  0.5550 -0.0377
 2096SOL    HW1 6287   1.715   1.406   4.265  0.0092  0.9040  1.3742
 2096SOL    HW2 6288   1.682   1.553   4.283 -0.1814  1.1366 -0.5927
 2097SOL     OW 6289   3.636   0.145   3.442 -0.3617  0.6906  0.3806
 2097SOL    HW1 6290   3.600   0.179   3.524  0.2161  1.8674  0.1780
 2097SOL    HW2 6291   3.561   0.108   3.395 -1.0305  1.7097  0.6276
 2098SOL     OW 6292   3.900   1.707   0.814 -0.4174  0.1969  0.5561
 2098SOL    HW1 6293   3.855   1.753   0.885  2.1455  1.2057  1.6442
 2098SOL    HW2 6294   3.949   1.776   0.768 -1.9855 -0.4383 -2.2527
 2099SOL     OW 6295   2.578   1.305   2.838 -0.0618 -0.6175  0.1104
 2099SOL    HW1 6296   2.629   1.240   2.885  0.0844 -2.8930 -2.8800
 2099SOL    HW2 6297   2.642   1.348   2.781 -0.7854 -0.5631 -0.6740
 2100SOL     OW 6298   2.896   1.457   3.708  0.1379  0.2630  0.1268
 2100SOL    HW1 6299   2.813   1.447   3.755  1.0372  1.2190  2.0230
 2100SOL    HW2 6300   2.887   1.540   3.661 -0.5761 -0.4564 -1.0716
 2101SOL     OW 6301   2.240   0.824   2.846 -0.2543  0.0016 -0.4347
 2101SOL    HW1 6302   2.315   0.817   2.905  0.4872  1.5494 -1.1377
 2101SOL    HW2 6303   2.278   0.836   2.759 -1.2857  1.3943 -0.7339
 2102SOL     OW 6304   2.526   2.660   2.555  0.2233  0.4921 -0.3410
 2102SOL    HW1 6305   2.457   2.598   2.580  0.3680 -0.0482 -1.2396
 2102SOL    HW2 6306   2.503   2.741   2.601 -1.1531  0.3931 -0.7931
 2103SOL     OW 6307   1.062   2.490   0.401 -0.6239  0.7098 -0.5115
 2103SOL    HW1 6308   0.998   2.465   0.335  0.1246 -0.7101 -0.7494
 2103SOL    HW2 6309   1.013   2.492   0.483 -1.1299  0.4354 -0.8046
 2104SOL     OW 6310   0.904   1.606   3.311 -0.1480  0.4824 -0.6970
 2104SOL    HW1 6311   0.965   1.678   3.327  0.9755  0.2939 -3.4517
 2104SOL    HW2 6312   0.831   1.622   3.370  0.8041  2.9499 -0.0720
 2105SOL     OW 6313   3.774   0.925   3.234  0.1156  1.0223 -0.0371
 2105SOL    HW1 6314   3.691   0.967   3.208 -0.3765 -0.3025 -0.6790
 2105SOL    HW2 6315   3.841   0.979   3.192 -0.3853  2.2391  0.6524
 2106SOL     OW 6316   2.437   0.886   1.471  0.8297 -0.1337  0.3295
 2106SOL    HW1 6317   2.341   0.883   1.472  0.6932  0.2882 -2.4729
 2106SOL    HW2 6318   2.463   0.837   1.548 -1.6412 -2.5077 -0.1661
 2107SOL     OW 6319   3.328   2.358   4.178  0.0453 -0.1003 -0.6726
 2107SOL    HW1 6320   3.250   2.349   4.123  0.4956 -1.2027 -1.1645
 2107SOL    HW2 6321   3.377   2.277   4.163  1.7808  0.9859 -1.1514
 2108SOL     OW 6322   4.047   2.941   0.825  0.1814 -0.1749  0.1715
 2108SOL    HW1 6323   4.109   3.013   0.837  0.6846 -0.6037  0.2365
 2108SOL    HW2 6324   4.073   2.877   0.892  0.6655 -1.0289 -0.7898
 2109SOL     OW 6325   2.144   3.466   2.549 -1.4328 -0.0298  0.0399
 2109SOL    HW1 6326   2.087   3.525   2.598 -0.3618  1.1327 -0.0584
 2109SOL    HW2 6327   2.224   3.516   2.535 -0.1315 -1.8076  0.7102
 2110SOL     OW 6328   3.415   2.436   3.033 -0.4789  0.1628  0.1297
 2110SOL    HW1 6329   3.347   2.482   3.082  0.5112 -0.7287  2.5111
 2110SOL    HW2 6330   3.490   2.495   3.034  0.2559 -0.7277  1.7285
 2111SOL     OW 6331   3.936   2.406   1.288 -0.1658 -0.6157 -0.1275
 2111SOL    HW1 6332   3.925   2.460   1.209  1.0512 -0.0164  0.0919
 2111SOL    HW2 6333   3.847   2.380   1.311 -0.8394  1.3945 -0.1956
 2112SOL     OW 6334   2.395   4.183   2.315  0.4992  0.2936  0.1644
 2112SOL    HW1 6335   2.324   4.247   2.318  0.3656  0.1394  0.3531
 2112SOL    HW2 6336   2.439   4.199   2.231 -1.6717 -1.6693 -1.4732
 2113SOL     OW 6337   4.228   4.142   3.332 -0.9272 -0.2153 -0.1395
 2113SOL    HW1 6338   4.308   4.092   3.317 -0.4606  0.5945 -0.4455
 2113SOL    HW2 6339   4.249   4.199   3.406 -0.9058  0.6405 -0.7900
 2114SOL     OW 6340   2.187   3.160   1.082 -0.2627  0.3536  0.2324
 2114SOL    HW1 6341   2.104   3.116   1.100  0.5704 -1.1562  0.5879
 2114SOL    HW2 6342   2.162   3.248   1.056 -1.9458  0.1115  0.8714
 2115SOL     OW 6343   1.206   2.878   2.495 -0.1789 -0.7854  1.0531
 2115SOL    HW1 6344   1.197   2.821   2.572  0.0965 -2.2282  0.0601
 2115SOL    HW2 6345   1.118   2.882   2.458 -0.5800  0.9147  2.0814
 2116SOL     OW 6346   2.455   1.317   1.925  0.1854 -0.6674  0.0554
 2116SOL    HW1 6347   2.363   1.344   1.915  0.6417  2.0784  2.1646
 2116SOL    HW2 6348   2.473   1.329   2.018  3.0189  0.0452 -0.5103
 2117SOL     OW 6349   2.414   1.510   4.202  0.3257 -0.2374  0.0646
 2117SOL    HW1 6350   2.504   1.519   4.232  0.5406 -0.2880 -0.5641
 2117SOL    HW2 6351   2.376   1.597   4.216  0.0669 -0.5596  1.6010
 2118SOL     OW 6352   1.459   4.401   3.574 -0.1227 -0.2930 -0.1546
 2118SOL    HW1 6353   1.474   4.495   3.581 -0.5646 -0.1484 -1.0600
 2118SOL    HW2 6354   1.450   4.371   3.665  0.5420  0.4457  0.1571
 2119SOL     OW 6355   1.664   3.445   2.758  0.4964 -0.0939  0.1662
 2119SOL    HW1 6356   1.568   3.438   2.754  0.4705  0.6712 -1.8737
 2119SOL    HW2 6357   1.681   3.502   2.833 -0.8060  1.6301 -0.7841
 2120SOL     OW 6358  -0.005   0.506   2.066 -0.4240 -0.4128  0.2886
 2120SOL    HW1 6359   0.021   0.420   2.099  1.7361 -0.5849 -1.6129
 2120SOL    HW2 6360  -0.011   0.494   1.971  1.9356  1.9508 -0.2458
 2121SOL     OW 6361   3.555   3.829   0.222 -0.2527 -0.0556  0.5615
 2121SOL    HW1 6362   3.480   3.791   0.268 -0.1574  0.8539  1.5132
 2121SOL    HW2 6363   3.523   3.847   0.133 -0.5100 -1.6167  0.3102
 2122SOL     OW 6364   2.618   1.700   1.847 -0.6037  0.0081 -0.2312
 2122SOL    HW1 6365   2.601   1.717   1.939 -1.6201  0.0535 -0.4217
 2122SOL    HW2 6366   2.563   1.763   1.800  0.6252  0.6526 -0.8720
 2123SOL     OW 6367   0.870   2.333   3.529 -0.4113 -0.4789  0.1589
 2123SOL    HW1 6368   0.822   2.415   3.535 -1.9779 -1.4362  1.9091
 2123SOL    HW2 6369   0.866   2.309   3.437 -0.7866  0.9124 -0.2061
 2124SOL     OW 6370   2.201   0.779   4.357 -0.3478 -0.2773 -0.4674
 2124SOL    HW1 6371   2.278   0.772   4.412 -0.0544  0.2492 -0.8020
 2124SOL    HW2 6372   2.228   0.742   4.273 -0.0890  0.9175 -0.9396
 2125SOL     OW 6373   3.050   0.912   0.447 -0.2559 -0.3270  1.1080
 2125SOL    HW1 6374   3.098   0.994   0.460 -1.2616  0.5887 -0.6595
 2125SOL    HW2 6375   3.037   0.907   0.352 -2.9357 -0.9380  1.4370
 2126SOL     OW 6376   1.901   1.680   0.640  0.1687  0.4301  0.9771
 2126SOL    HW1 6377   1.978   1.689   0.584  0.8560 -0.0784  1.8105
 2126SOL    HW2 6378   1.930   1.712   0.725 -0.8381  1.1371  1.0736
 2127SOL     OW 6379   2.393   2.863   3.709 -0.1556  0.7061  0.0571
 2127SOL    HW1 6380   2.319   2.923   3.705 -0.6736  0.0476 -0.4119
 2127SOL    HW2 6381   2.470   2.919   3.698 -0.5288  1.4799  1.1824
 2128SOL     OW 6382   0.352   0.045   2.242  0.6379  0.2943 -0.0388
 2128SOL    HW1 6383   0.375  -0.042   2.211  0.4928  0.3158 -0.2092
 2128SOL    HW2 6384   0.257   0.049   2.232  0.6348  0.4400  0.0511
 2129SOL     OW 6385   2.090   2.454   1.595  0.3875 -0.3395  0.2730
 2129SOL    HW1 6386   2.008   2.474   1.641  0.1317  0.3873 -0.4709
 2129SOL    HW2 6387   2.155   2.443   1.665 -0.0955  0.2618  0.8267
 2130SOL     OW 6388   0.899   0.200   2.445 -0.3028  0.2462  0.5764
 2130SOL    HW1 6389   0.868   0.120   2.488  0.2040 -0.5909 -0.5524
 2130SOL    HW2 6390   0.935   0.170   2.362  0.1763  1.6287  0.2532
 2131SOL     OW 6391   2.180   2.526   4.317  0.1659  0.1746  0.2635
 2131SOL    HW1 6392   2.201   2.573   4.236  0.8700 -0.8257 -0.1512
 2131SOL    HW2 6393   2.196   2.434   4.296 -0.0403 -0.1339  1.4174
 2132SOL     OW 6394   2.092   1.481   2.205 -0.4445 -0.2230  0.0235
 2132SOL    HW1 6395   2.104   1.541   2.131  2.2019 -0.5951  0.0350
 2132SOL    HW2 6396   2.005   1.502   2.239  0.1132  3.2426 -0.3034
 2133SOL     OW 6397   4.463   3.566   3.873 -0.6100 -0.8681  0.0826
 2133SOL    HW1 6398   4.501   3.586   3.959 -0.7844  0.1081 -0.0519
 2133SOL    HW2 6399   4.458   3.471   3.871 -0.5921 -0.9086  1.1516
 2134SOL     OW 6400   3.230   0.201   3.749  0.3378  0.3356  0.0332
 2134SOL    HW1 6401   3.221   0.297   3.752 -1.7694  0.1976  0.2167
 2134SOL    HW2 6402   3.256   0.183   3.659 -1.5583  1.0128 -0.7189
 2135SOL     OW 6403   1.663   1.968   0.370 -0.0385 -0.0576  0.1196
 2135SOL    HW1 6404   1.682   1.886   0.417 -0.5972 -0.2935 -0.0585
 2135SOL    HW2 6405   1.744   1.988   0.323  0.3195 -0.1521  0.6910
 2136SOL     OW 6406   2.029   2.289   3.024 -0.7554 -0.0624 -0.8024
 2136SOL    HW1 6407   1.937   2.269   3.010 -1.2150  2.8056 -2.6142
 2136SOL    HW2 6408   2.073   2.262   2.943 -0.3640  0.5293 -0.7920
 2137SOL     OW 6409   2.576   3.028   3.073  0.2897  0.4183 -0.0149
 2137SOL    HW1 6410   2.671   3.026   3.088  0.2119 -0.5039  0.4371
 2137SOL    HW2 6411   2.558   3.118   3.049  1.2817  0.6194 -0.0637
 2138SOL     OW 6412   4.238   2.388   0.470  0.3908  0.1115  0.1886
 2138SOL    HW1 6413   4.272   2.396   0.381  0.6911  2.5662  0.4611
 2138SOL    HW2 6414   4.310   2.347   0.519 -0.6097 -3.4588 -1.0515
 2139SOL     OW 6415   3.144   0.637   0.089 -0.1618 -0.0606 -0.3853
 2139SOL    HW1 6416   3.163   0.630   0.183 -0.5849 -2.0792 -0.4035
 2139SOL    HW2 6417   3.217   0.594   0.046 -1.9165 -3.0227 -0.7081
 2140SOL     OW 6418   1.049   2.910   3.004  0.1057 -0.4221 -0.2084
 2140SOL    HW1 6419   1.052   2.969   2.929  1.8254 -0.9501 -0.5966
 2140SOL    HW2 6420   1.070   2.965   3.079 -1.0829 -0.0067 -0.1497
 2141SOL     OW 6421   1.947   4.257   2.795 -0.2800  0.5464  0.5341
 2141SOL    HW1 6422   1.982   4.302   2.718  0.6350  0.8273  1.0917
 2141SOL    HW2 6423   1.940   4.326   2.861 -0.9467  0.2872  0.7366
 2142SOL     OW 6424   4.408   3.002   2.376 -0.2072 -0.2015 -0.0641
 2142SOL    HW1 6425   4.494   3.033   2.346 -1.0472  1.7908 -0.5862
 2142SOL    HW2 6426   4.369   2.960   2.300  0.1209 -0.7155  0.0478
 2143SOL     OW 6427   0.953   1.368   2.881  0.3742 -0.6278  0.3883
 2143SOL    HW1 6428   1.017   1.359   2.811 -0.0140  0.1821 -0.0816
 2143SOL    HW2 6429   1.005   1.385   2.959  0.7429 -0.0030  0.0143
 2144SOL     OW 6430   1.250   4.341   1.895 -0.3912  0.3879  0.4419
 2144SOL    HW1 6431   1.337   4.370   1.865 -0.5978 -0.6626 -1.2880
 2144SOL    HW2 6432   1.267   4.262   1.946 -0.3151  0.3524  0.3611
 2145SOL     OW 6433   0.753   0.645   2.367  0.0816 -0.4784 -0.5122
 2145SOL    HW1 6434   0.728   0.558   2.336 -1.9660 -0.4353  0.8060
 2145SOL    HW2 6435   0.811   0.629   2.442 -1.7293 -0.8325  0.8880
 2146SOL     OW 6436   3.666   2.016   0.690 -0.0561  0.1635 -0.3125
 2146SOL    HW1 6437   3.703   2.104   0.692 -0.8248  0.5347 -1.5876
 2146SOL    HW2 6438   3.572   2.030   0.688 -0.1719 -0.6550 -1.2814
 2147SOL     OW 6439   0.727   4.203   2.219  0.7627  0.2193  0.0440
 2147SOL    HW1 6440   0.723   4.297   2.235  1.3398  0.0940  0.9388
 2147SOL    HW2 6441   0.812   4.189   2.178  1.6688 -0.1981  1.9806
 2148SOL     OW 6442   4.181   3.409   1.389 -0.3453  0.1063 -0.1622
 2148SOL    HW1 6443   4.251   3.475   1.394  0.2862 -0.6409  2.3118
 2148SOL    HW2 6444   4.212   3.347   1.323  0.8402  0.3811  0.0994
 2149SOL     OW 6445   3.248   0.964   2.978 -0.3455  0.1536 -0.5132
 2149SOL    HW1 6446   3.259   0.869   2.978  0.9128  0.2843 -0.4151
 2149SOL    HW2 6447   3.207   0.983   2.893  0.2812 -0.3930 -0.9517
 2150SOL     OW 6448   3.713   0.673   0.161 -0.4227 -0.2211 -0.4352
 2150SOL    HW1 6449   3.718   0.742   0.227  0.8924 -0.9079  0.2216
 2150SOL    HW2 6450   3.666   0.602   0.204 -1.8378  0.2538 -1.1344
 2151SOL     OW 6451   3.816   3.611   3.707  0.0542  0.6590 -0.0618
 2151SOL    HW1 6452   3.849   3.547   3.645  1.5134  0.1903  1.1468
 2151SOL    HW2 6453   3.734   3.573   3.739 -0.6467  0.8513 -1.5715
 2152SOL     OW 6454   2.149   0.844   1.461  0.4469  0.6055  0.2878
 2152SOL    HW1 6455   2.176   0.928   1.424 -0.3734  1.5636  1.7302
 2152SOL    HW2 6456   2.118   0.866   1.549 -1.2275 -0.9917  0.1592
 2153SOL     OW 6457   1.968   2.173   2.129 -0.2172  0.4794  0.0481
 2153SOL    HW1 6458   1.967   2.251   2.073 -2.2775  1.3510  1.1850
 2153SOL    HW2 6459   1.884   2.131   2.112  0.5000 -1.0183  0.1248
 2154SOL     OW 6460   1.977   1.095   2.723  0.1644 -0.2163  0.6418
 2154SOL    HW1 6461   2.020   1.119   2.805 -0.5806  0.9657  0.7124
 2154SOL    HW2 6462   1.976   1.176   2.672  0.1219 -0.8034 -0.3088
 2155SOL     OW 6463   3.615   1.251   1.895  0.1122 -0.1352 -0.2001
 2155SOL    HW1 6464   3.671   1.221   1.823 -0.2567 -1.0121 -0.1275
 2155SOL    HW2 6465   3.526   1.242   1.862 -0.1639 -2.3818  1.0171
 2156SOL     OW 6466   1.424   2.831   2.353 -0.2110  1.0256  0.2259
 2156SOL    HW1 6467   1.353   2.812   2.415  1.0516  2.0787  2.1204
 2156SOL    HW2 6468   1.391   2.901   2.299 -0.6767  1.4454  1.0332
 2157SOL     OW 6469   0.760   0.138   3.014 -0.1363 -0.3235 -0.3543
 2157SOL    HW1 6470   0.719   0.224   3.025 -1.1785 -0.8869  0.3058
 2157SOL    HW2 6471   0.854   0.157   3.004 -0.4695  0.9537 -1.2757
 2158SOL     OW 6472   1.348   0.081   1.032  0.4729  0.5943 -0.2261
 2158SOL    HW1 6473   1.358   0.101   0.939 -1.0133 -0.0413 -0.5459
 2158SOL    HW2 6474   1.314   0.162   1.070  0.2658  0.5931 -0.4046
 2159SOL     OW 6475   3.735   3.809   2.569  0.3199 -0.3780 -0.1758
 2159SOL    HW1 6476   3.748   3.823   2.663 -0.7251 -0.7510  0.0439
 2159SOL    HW2 6477   3.653   3.855   2.550  0.5555 -0.2611 -0.9161
 2160SOL     OW 6478   3.206   3.539   2.526  0.0666 -0.0676 -0.1434
 2160SOL    HW1 6479   3.148   3.606   2.562  0.0839  0.0640 -0.3593
 2160SOL    HW2 6480   3.217   3.563   2.434 -0.9924 -1.0865 -0.5705
 2161SOL     OW 6481   1.072   1.659   2.613  0.1668 -0.6523  0.0369
 2161SOL    HW1 6482   1.103   1.686   2.699 -1.7685  1.5524  0.1510
 2161SOL    HW2 6483   0.982   1.691   2.609  0.2701 -0.4702 -2.8866
 2162SOL     OW 6484   4.036   1.458   1.964 -0.3890  0.0005  0.3379
 2162SOL    HW1 6485   4.088   1.397   1.912  0.1630  0.1155  0.7506
 2162SOL    HW2 6486   4.061   1.544   1.932  0.0810  0.0789  0.9055
 2163SOL     OW 6487   2.015   1.793   2.371  0.1000  0.1618  0.7841
 2163SOL    HW1 6488   1.998   1.839   2.289  2.7227  1.5301  0.9092
 2163SOL    HW2 6489   1.959   1.715   2.367 -1.1302  1.0847 -1.4834
 2164SOL     OW 6490   1.760   0.710   0.955 -0.1432 -0.1009 -0.1386
 2164SOL    HW1 6491   1.728   0.731   1.042  0.3021  0.7332 -0.1648
 2164SOL    HW2 6492   1.802   0.625   0.964 -2.3071 -1.2194 -0.0944
 2165SOL     OW 6493   2.462   0.330   0.675  0.4646  0.2772  0.0521
 2165SOL    HW1 6494   2.389   0.348   0.734  1.0113  0.2362  0.7627
 2165SOL    HW2 6495   2.532   0.389   0.706  0.9434 -0.1613 -0.1813
 2166SOL     OW 6496   2.250   0.071   1.825  0.0491  0.1054 -0.2347
 2166SOL    HW1 6497   2.228   0.046   1.735  0.0295  1.2508 -0.5651
 2166SOL    HW2 6498   2.210   0.157   1.837  1.0290  0.4915  0.4661
 2167SOL     OW 6499   4.432   1.245   1.434 -0.2162  0.2523  0.0950
 2167SOL    HW1 6500   4.400   1.308   1.498 -1.2527 -0.3294  0.1691
 2167SOL    HW2 6501   4.512   1.284   1.400 -0.8318  1.6117  0.1402
 2168SOL     OW 6502   2.131   3.453   4.463 -0.2645  0.0693  0.3194
 2168SOL    HW1 6503   2.195   3.495   4.405 -0.0136  0.0017  0.5424
 2168SOL    HW2 6504   2.102   3.376   4.414 -0.3790  0.2480  0.1036
 2169SOL     OW 6505   1.755   2.211   3.107  0.8750 -0.2430  0.1733
 2169SOL    HW1 6506   1.706   2.134   3.133  0.2410 -0.1904 -0.8183
 2169SOL    HW2 6507   1.753   2.268   3.184  0.8635 -0.9673  0.7175
 2170SOL     OW 6508   0.052   4.396   0.389  0.2363  0.5327  0.5014
 2170SOL    HW1 6509   0.128   4.377   0.443  0.1193 -0.1099  0.4450
 2170SOL    HW2 6510   0.087   4.416   0.302  0.2893 -0.8207  0.1941
 2171SOL     OW 6511   2.038   3.427   3.285 -0.1490 -0.5346 -0.5090
 2171SOL    HW1 6512   1.943   3.438   3.279 -0.4099 -2.1519 -0.0266
 2171SOL    HW2 6513   2.073   3.516   3.284 -1.6855  0.1054 -0.3615
 2172SOL     OW 6514   1.637   3.755   4.077  0.2502 -0.2505  0.0495
 2172SOL    HW1 6515   1.606   3.693   4.012 -0.2098  0.2221 -0.1933
 2172SOL    HW2 6516   1.688   3.703   4.139  1.3663 -0.5956 -1.1110
 2173SOL     OW 6517   1.871   0.322   0.195  0.0608 -0.0247  0.0580
 2173SOL    HW1 6518   1.858   0.417   0.203  0.4481  0.1073 -0.7501
 2173SOL    HW2 6519   1.804   0.294   0.133  0.7480 -0.0686 -0.6755
 2174SOL     OW 6520   0.629   0.145   0.206  0.0947 -0.4766 -0.0082
 2174SOL    HW1 6521   0.588   0.080   0.149 -1.5028  0.5931 -0.1329
 2174SOL    HW2 6522   0.665   0.094   0.279  2.9473 -1.9928 -2.2615
 2175SOL     OW 6523   2.437   2.088   4.125  0.5927 -0.6022 -0.0108
 2175SOL    HW1 6524   2.430   1.998   4.094 -0.7364 -0.1177 -1.2395
 2175SOL    HW2 6525   2.406   2.141   4.051  1.4139  0.8711  0.6615
 2176SOL     OW 6526   0.319   3.962   3.142 -0.2791 -0.5713 -0.4119
 2176SOL    HW1 6527   0.269   3.922   3.213 -0.1975  0.9152  0.5369
 2176SOL    HW2 6528   0.342   3.889   3.084  0.7239 -2.0742  1.7263
 2177SOL     OW 6529   1.200   1.190   3.731 -0.0994 -0.6575 -0.3760
 2177SOL    HW1 6530   1.294   1.205   3.744 -0.5404  2.6160  0.1105
 2177SOL    HW2 6531   1.178   1.121   3.793  1.7552 -0.4718  0.5590
 2178SOL     OW 6532   1.205   2.394   0.729  0.5074 -0.3459  0.3363
 2178SOL    HW1 6533   1.149   2.455   0.777 -0.2123 -0.0810 -0.8112
 2178SOL    HW2 6534   1.176   2.307   0.757 -0.0939 -0.2014  0.1652
 2179SOL     OW 6535   3.078   4.227   3.318 -0.3018  0.1187 -0.0887
 2179SOL    HW1 6536   3.028   4.187   3.390 -2.3419  2.9852  0.2645
 2179SOL    HW2 6537   3.093   4.317   3.347 -0.3114  1.0909 -2.8180
 2180SOL     OW 6538   0.371   3.537   3.962  0.1627 -0.3946 -0.6866
 2180SOL    HW1 6539   0.369   3.621   4.007  0.4262 -0.7563  0.0047
 2180SOL    HW2 6540   0.409   3.476   4.025  1.8479 -0.6271 -1.8436
 2181SOL     OW 6541   3.339   2.931   3.741  0.1772 -0.4273 -0.1004
 2181SOL    HW1 6542   3.398   2.931   3.666  1.3107 -1.9698  0.7438
 2181SOL    HW2 6543   3.355   3.015   3.785 -0.8022  0.6828 -1.7431
 2182SOL     OW 6544   0.519   3.426   1.237 -0.3090 -0.2137  0.1002
 2182SOL    HW1 6545   0.552   3.436   1.148  1.8058 -1.9293  0.6023
 2182SOL    HW2 6546   0.425   3.441   1.230 -0.3885 -1.4529 -2.6391
 2183SOL     OW 6547   2.504   0.908   2.663  0.1217  0.2052 -0.5248
 2183SOL    HW1 6548   2.553   0.990   2.661 -0.1947  0.4217  0.0530
 2183SOL    HW2 6549   2.568   0.841   2.685  0.1441  0.5090  0.3881
 2184SOL     OW 6550   1.319  -0.030   1.277 -0.7153 -0.1019 -0.1914
 2184SOL    HW1 6551   1.331  -0.001   1.187  1.5445 -0.8228 -0.1862
 2184SOL    HW2 6552   1.330   0.049   1.330  0.6829 -0.0931 -0.4423
 2185SOL     OW 6553   4.242   1.919   1.039  0.4442 -0.5109  0.0716
 2185SOL    HW1 6554   4.317   1.922   0.980  0.8429  0.0323  0.5964
 2185SOL    HW2 6555   4.269   1.860   1.109  0.7229  0.3649  0.7142
 2186SOL     OW 6556   2.332   1.470   1.225  0.7201  0.1300 -0.4808
 2186SOL    HW1 6557   2.352   1.495   1.134  1.0515  1.1496 -0.1397
 2186SOL    HW2 6558   2.387   1.394   1.242 -0.7447 -1.3185 -1.7489
 2187SOL     OW 6559   3.128   3.086   4.310  0.3966  1.0497  0.3584
 2187SOL    HW1 6560   3.127   3.156   4.245  2.2511  1.3693  0.6092
 2187SOL    HW2 6561   3.219   3.083   4.340 -0.0479 -0.2377  1.6941
 2188SOL     OW 6562   3.358   0.089   3.989 -0.0842  0.3435  0.3789
 2188SOL    HW1 6563   3.436   0.051   3.947 -0.5632  1.8517 -2.0872
 2188SOL    HW2 6564   3.318   0.142   3.921 -1.1682  2.7387  2.6990
 2189SOL     OW 6565   3.933   3.375   2.124  0.2737 -0.1450  0.3350
 2189SOL    HW1 6566   3.994   3.352   2.055 -2.2195 -1.5018 -1.5776
 2189SOL    HW2 6567   3.948   3.468   2.140  0.5989  0.3399 -2.4162
 2190SOL     OW 6568   3.112   0.363   2.855 -0.4617  0.3590  0.0446
 2190SOL    HW1 6569   3.115   0.427   2.784 -0.2487 -1.0756 -1.2982
 2190SOL    HW2 6570   3.200   0.325   2.856 -0.4541  0.3867  1.1269
 2191SOL     OW 6571   3.545   1.294   4.362  0.1941 -0.4264  0.5756
 2191SOL    HW1 6572   3.462   1.290   4.315  0.9866 -0.8902 -0.8316
 2191SOL    HW2 6573   3.600   1.352   4.310  0.5713  0.3923  1.8333
 2192SOL     OW 6574   1.048   1.453   3.121 -0.7255 -0.2135  0.4602
 2192SOL    HW1 6575   1.088   1.398   3.189  1.8036  0.8964 -0.0290
 2192SOL    HW2 6576   1.005   1.524   3.170 -1.4759 -0.9798  0.9615
 2193SOL     OW 6577   0.964   0.588   1.311  0.5446  0.0672 -0.0653
 2193SOL    HW1 6578   1.009   0.511   1.347 -0.6170 -1.0381 -0.9016
 2193SOL    HW2 6579   0.884   0.595   1.363  0.4379  0.4458 -0.2783
 2194SOL     OW 6580   2.844   2.123   0.051  0.0460 -0.2835 -0.0277
 2194SOL    HW1 6581   2.898   2.143  -0.026  1.3818  1.6779  1.2997
 2194SOL    HW2 6582   2.773   2.188   0.047  1.6943  1.7877  1.7676
 2195SOL     OW 6583   3.880   4.057   2.519  0.5090 -0.0401  0.4017
 2195SOL    HW1 6584   3.892   4.092   2.431  0.1473 -1.7035 -0.3516
 2195SOL    HW2 6585   3.869   3.962   2.506 -0.3995 -0.2186  2.1527
 2196SOL     OW 6586   2.941   3.489   0.931  0.4174 -0.0707 -0.0031
 2196SOL    HW1 6587   3.034   3.465   0.932 -0.0599 -2.1523  1.0288
 2196SOL    HW2 6588   2.930   3.544   1.009  1.1750  2.2547 -1.4183
 2197SOL     OW 6589   2.981   3.456   0.636 -0.0821  0.7623 -0.2301
 2197SOL    HW1 6590   2.948   3.476   0.723 -0.2691  0.4748 -0.2350
 2197SOL    HW2 6591   2.970   3.361   0.627  0.1196  0.7615 -0.4894
 2198SOL     OW 6592   3.217   3.717   0.925  0.2289  0.0216  0.4183
 2198SOL    HW1 6593   3.273   3.715   0.847  0.7645 -0.4269  0.7993
 2198SOL    HW2 6594   3.222   3.627   0.959 -0.3819  0.0944  0.6988
 2199SOL     OW 6595   1.972   0.571   0.460  0.1118  0.4499 -0.0946
 2199SOL    HW1 6596   2.029   0.524   0.521 -0.1226  0.6648  0.2923
 2199SOL    HW2 6597   2.033   0.625   0.408  0.2761  0.5869  0.2355
 2200SOL     OW 6598   3.994   2.105   3.467 -0.5143 -0.4121  0.3080
 2200SOL    HW1 6599   3.930   2.035   3.452 -0.3018 -0.6883  0.6438
 2200SOL    HW2 6600   3.943   2.186   3.462 -0.9654 -0.6443  0.9148
 2201SOL     OW 6601   1.808   2.560   2.114 -0.4714 -0.6270 -0.2319
 2201SOL    HW1 6602   1.733   2.519   2.157 -1.7473  0.4140 -1.3916
 2201SOL    HW2 6603   1.830   2.635   2.170 -2.3174  0.9030 -1.4471
 2202SOL     OW 6604   2.322   3.969   0.784  0.5442  0.1758 -0.4097
 2202SOL    HW1 6605   2.263   4.010   0.721  0.7143  1.1234  0.0394
 2202SOL    HW2 6606   2.409   3.984   0.748  0.5520 -0.9244 -0.8951
 2203SOL     OW 6607   1.820   0.898   2.637  0.1935  0.5569  0.3206
 2203SOL    HW1 6608   1.875   0.969   2.671 -1.2513  1.4358  0.9243
 2203SOL    HW2 6609   1.766   0.941   2.569 -1.0261  0.1704  1.0173
 2204SOL     OW 6610   4.220   1.810   3.673  0.1854  0.3117  0.9659
 2204SOL    HW1 6611   4.251   1.884   3.620 -1.3621 -0.1585 -0.6998
 2204SOL    HW2 6612   4.219   1.843   3.763  0.9955  1.7933  0.4593
 2205SOL     OW 6613   3.967   2.053   3.071 -0.3455 -0.7406  0.4168
 2205SOL    HW1 6614   3.995   2.103   2.994 -2.2506 -0.2512  0.0110
 2205SOL    HW2 6615   3.899   1.994   3.039 -2.0898  0.3654  1.9341
 2206SOL     OW 6616   0.659   3.476   0.998  0.4721 -0.4179  0.3151
 2206SOL    HW1 6617   0.677   3.413   0.928  0.0229  0.9664 -1.0965
 2206SOL    HW2 6618   0.746   3.500   1.031  0.7043 -0.9229  0.0942
 2207SOL     OW 6619   0.382   2.615   4.111 -0.4095 -0.0783  0.0847
 2207SOL    HW1 6620   0.376   2.529   4.069 -2.2087  0.1343 -0.1853
 2207SOL    HW2 6621   0.391   2.595   4.204  1.6275 -0.5344 -0.1566
 2208SOL     OW 6622   4.306   0.245   0.371  0.0372  0.1739 -0.2458
 2208SOL    HW1 6623   4.279   0.286   0.289 -0.0225 -0.7051 -0.6831
 2208SOL    HW2 6624   4.226   0.202   0.403  0.4188 -0.7713 -0.5273
 2209SOL     OW 6625   1.625   2.259   3.835  0.0296  0.2936 -0.2265
 2209SOL    HW1 6626   1.657   2.315   3.906  0.1088 -1.2205  0.9758
 2209SOL    HW2 6627   1.531   2.275   3.832 -0.0492 -0.0003  0.5595
 2210SOL     OW 6628   4.055   3.345   3.176  0.3893 -0.2780  0.4255
 2210SOL    HW1 6629   4.014   3.375   3.095  0.6946 -1.1774 -0.0754
 2210SOL    HW2 6630   4.130   3.295   3.147  0.9434  0.0307  1.2998
 2211SOL     OW 6631   3.640   1.876   0.442  0.4307  0.4275 -0.0178
 2211SOL    HW1 6632   3.732   1.852   0.437  0.3554  0.2505 -0.6420
 2211SOL    HW2 6633   3.628   1.910   0.531  0.9973  0.0506  0.2050
 2212SOL     OW 6634   2.789   4.071   1.726 -0.2291  0.0294 -0.3330
 2212SOL    HW1 6635   2.760   4.104   1.811  0.1141 -1.3327  0.3399
 2212SOL    HW2 6636   2.709   4.062   1.675 -0.8351 -1.9017  0.8612
 2213SOL     OW 6637   4.318   0.446   2.640 -0.2719 -0.4003  0.8754
 2213SOL    HW1 6638   4.286   0.455   2.729  0.4720 -1.5600  1.2799
 2213SOL    HW2 6639   4.413   0.448   2.648 -0.1836  1.4090 -0.1271
 2214SOL     OW 6640   2.459   2.505   2.955  0.3514  0.4036  0.1016
 2214SOL    HW1 6641   2.377   2.546   2.927  0.7357  0.2923 -1.2647
 2214SOL    HW2 6642   2.515   2.578   2.981  0.6589  0.7020 -1.3124
 2215SOL     OW 6643   3.490   3.222   2.299 -0.3647 -0.0429  0.0793
 2215SOL    HW1 6644   3.520   3.284   2.365 -2.0941 -0.9393  1.8008
 2215SOL    HW2 6645   3.528   3.138   2.325 -2.3973 -0.7400  0.9829
 2216SOL     OW 6646   4.429   4.005   2.021  0.5601  0.0530 -0.1037
 2216SOL    HW1 6647   4.383   4.044   1.946  1.3990 -0.1061 -0.7250
 2216SOL    HW2 6648   4.403   4.059   2.096 -1.0765 -0.3889 -0.3079
 2217SOL     OW 6649   4.451   0.277   1.546  0.1413  0.3562  0.7540
 2217SOL    HW1 6650   4.426   0.367   1.528 -1.5985 -0.3739 -0.8405
 2217SOL    HW2 6651   4.510   0.254   1.474 -1.1751 -0.4020 -0.1310
 2218SOL     OW 6652   3.662   3.803   0.540 -0.1404 -0.2990  0.1307
 2218SOL    HW1 6653   3.576   3.802   0.497  0.2759  1.7412 -0.8228
 2218SOL    HW2 6654   3.644   3.841   0.626 -0.4829 -1.7174  0.7210
 2219SOL     OW 6655   2.075   3.776   0.778 -0.3286 -0.6262  0.3217
 2219SOL    HW1 6656   2.000   3.717   0.784 -0.9690  0.3117  2.2017
 2219SOL    HW2 6657   2.070   3.812   0.689 -2.3238 -0.3168  0.5161
 2220SOL     OW 6658   4.040   1.279   0.341  0.2462  0.1611  0.4962
 2220SOL    HW1 6659   4.070   1.338   0.410 -0.2441  1.0638 -0.0437
 2220SOL    HW2 6660   4.116   1.267   0.285 -0.0868  1.7089 -0.3573
 2221SOL     OW 6661   4.097   1.563   1.367  0.1627 -0.2714 -0.0930
 2221SOL    HW1 6662   4.152   1.600   1.297  0.6469  0.0938  0.4625
 2221SOL    HW2 6663   4.153   1.497   1.408 -0.4011 -1.0331 -0.5441
 2222SOL     OW 6664   4.415   0.035   0.608 -0.3996 -0.0653 -0.0462
 2222SOL    HW1 6665   4.423   0.055   0.514  2.1322 -1.6835 -0.2943
 2222SOL    HW2 6666   4.413  -0.061   0.611  0.2533 -0.0517  1.5935
 2223SOL     OW 6667   3.292   1.693   0.478 -0.0347 -0.2762  0.3670
 2223SOL    HW1 6668   3.303   1.780   0.440  1.7287 -0.6867 -0.1676
 2223SOL    HW2 6669   3.329   1.633   0.413 -1.4435 -1.4791  0.6067
 2224SOL     OW 6670   3.346   3.808   1.246  0.4654 -0.5525 -0.5654
 2224SOL    HW1 6671   3.384   3.820   1.332 -1.1868 -0.0002  0.1387
 2224SOL    HW2 6672   3.402   3.744   1.203  1.7200 -0.3069  0.6487
 2225SOL     OW 6673   0.823   0.159   3.911 -0.0758 -0.1026  0.2288
 2225SOL    HW1 6674   0.749   0.099   3.919  0.5690 -0.8705  0.5216
 2225SOL    HW2 6675   0.799   0.235   3.964 -1.9963  1.0502 -2.0954
 2226SOL     OW 6676   4.501   1.246   3.259 -0.0451  0.0726  0.4049
 2226SOL    HW1 6677   4.411   1.270   3.280  0.3781  0.9264  1.3376
 2226SOL    HW2 6678   4.494   1.195   3.178 -1.3649  0.0370  0.5126
 2227SOL     OW 6679   0.617   0.937   0.258  0.4168 -0.5973  0.4556
 2227SOL    HW1 6680   0.593   0.845   0.248 -0.4165 -0.2410 -1.1426
 2227SOL    HW2 6681   0.664   0.959   0.177  0.4474  0.4333  0.7365
 2228SOL     OW 6682   0.099   1.075   3.617  0.2091 -0.0251 -0.4216
 2228SOL    HW1 6683   0.142   1.075   3.703 -0.8444 -0.3728  0.1278
 2228SOL    HW2 6684   0.006   1.086   3.637 -0.0423 -0.0185 -1.5286
 2229SOL     OW 6685   3.949   2.609   0.828 -0.5646  0.3626  1.0053
 2229SOL    HW1 6686   3.927   2.696   0.793 -0.8884 -0.3687 -0.6800
 2229SOL    HW2 6687   3.969   2.556   0.751  0.6328 -0.8126  2.0653
 2230SOL     OW 6688   3.397   1.205   3.036  0.3632 -0.4002 -1.0995
 2230SOL    HW1 6689   3.340   1.277   3.011 -0.8672 -0.7851  0.4112
 2230SOL    HW2 6690   3.344   1.127   3.025  1.5735 -1.0808 -2.4124
 2231SOL     OW 6691   0.936   3.575   2.184 -0.3862  0.1800 -0.0884
 2231SOL    HW1 6692   1.023   3.590   2.221 -1.4028  1.0998  2.1315
 2231SOL    HW2 6693   0.889   3.527   2.253 -1.9717  0.7112 -0.7556
 2232SOL     OW 6694   2.015   2.519   1.093  0.5741  0.6595 -0.4687
 2232SOL    HW1 6695   2.100   2.475   1.085  0.1498 -0.0268 -1.4546
 2232SOL    HW2 6696   2.014   2.555   1.182  1.5871  0.0367 -0.1933
 2233SOL     OW 6697   0.234   3.084   1.315  0.1933 -0.5778  0.0901
 2233SOL    HW1 6698   0.287   3.010   1.346 -0.2034 -0.9199 -0.0297
 2233SOL    HW2 6699   0.218   3.137   1.393  1.2075 -0.1476  0.0207
 2234SOL     OW 6700   3.620   1.945   0.096 -0.2015  0.6395 -0.0094
 2234SOL    HW1 6701   3.699   1.995   0.074 -0.0617 -0.1097 -1.3268
 2234SOL    HW2 6702   3.621   1.871   0.036 -2.8220  1.5327 -1.3404
 2235SOL     OW 6703   1.812   4.034   3.258 -0.1265  0.3114  0.2021
 2235SOL    HW1 6704   1.797   4.128   3.248 -1.7671  0.0396 -0.1651
 2235SOL    HW2 6705   1.744   3.993   3.205  1.0007 -1.1040 -0.2420
 2236SOL     OW 6706   0.211   3.401   0.564 -0.1853  0.1013  0.4623
 2236SOL    HW1 6707   0.280   3.383   0.500 -1.4080  1.7678 -1.4570
 2236SOL    HW2 6708   0.243   3.476   0.614  0.6563 -1.0421  1.7403
 2237SOL     OW 6709   2.799   3.190   0.263 -0.3981 -0.5115 -0.1692
 2237SOL    HW1 6710   2.729   3.219   0.204  0.6264  0.0895 -1.1400
 2237SOL    HW2 6711   2.868   3.160   0.204 -0.2964 -2.2534  0.7924
 2238SOL     OW 6712   1.348   0.157   2.837  0.6766  0.3111  0.0007
 2238SOL    HW1 6713   1.321   0.124   2.923  0.6521  0.0724 -0.0980
 2238SOL    HW2 6714   1.355   0.251   2.849 -1.4484  0.5600 -0.2906
 2239SOL     OW 6715   1.765   2.434   0.525 -0.5454 -0.5155 -0.3094
 2239SOL    HW1 6716   1.706   2.492   0.573 -0.4033 -0.2874 -0.4130
 2239SOL    HW2 6717   1.821   2.396   0.593 -0.5876 -0.4726 -0.2510
 2240SOL     OW 6718   1.719   0.502   2.385  1.0560  0.1402 -0.5929
 2240SOL    HW1 6719   1.787   0.472   2.325  0.2788 -0.5013 -1.1717
 2240SOL    HW2 6720   1.765   0.515   2.468  2.1309  0.9933 -1.2979
 2241SOL     OW 6721   2.596   0.256   0.240 -0.3267 -0.0325 -0.0212
 2241SOL    HW1 6722   2.629   0.168   0.222 -1.4627 -0.1052 -1.9722
 2241SOL    HW2 6723   2.501   0.246   0.244 -0.4822  1.1082 -0.4683
 2242SOL     OW 6724   2.065   4.171   3.154  0.1104  0.1471  0.0329
 2242SOL    HW1 6725   2.115   4.136   3.228 -1.8884  1.4473  2.1418
 2242SOL    HW2 6726   1.975   4.141   3.169 -0.1665 -0.6464 -2.6620
 2243SOL     OW 6727   3.611   1.678   2.906  0.4854  0.2697 -0.4680
 2243SOL    HW1 6728   3.566   1.751   2.864 -0.6508  0.4990  1.0485
 2243SOL    HW2 6729   3.694   1.715   2.937 -0.0721  0.9178  0.2683
 2244SOL     OW 6730   2.059   2.418   2.044 -0.1902  0.2008 -0.1815
 2244SOL    HW1 6731   2.139   2.470   2.055  0.2261 -0.3919 -0.3007
 2244SOL    HW2 6732   1.989   2.482   2.038  0.1902  0.7120  0.6669
 2245SOL     OW 6733   1.927   1.666   0.206  0.2029  0.5377  0.1446
 2245SOL    HW1 6734   1.884   1.703   0.283 -1.6220  1.2003 -1.1273
 2245SOL    HW2 6735   1.914   1.731   0.137  1.0776 -0.4033 -0.9528
 2246SOL     OW 6736   0.035   3.609   4.448  0.4316  0.5566  0.7077
 2246SOL    HW1 6737   0.102   3.602   4.380 -0.4550 -1.4386 -0.0345
 2246SOL    HW2 6738   0.036   3.702   4.472 -0.1402  1.6992 -2.9919
 2247SOL     OW 6739   0.224   1.747   0.504  0.2438  0.1326  0.5844
 2247SOL    HW1 6740   0.310   1.781   0.478  0.2072 -0.4768 -0.4074
 2247SOL    HW2 6741   0.245   1.670   0.557  0.3220  1.4835  2.6217
 2248SOL     OW 6742   1.786   3.376   0.437 -0.3034 -0.2529  0.5536
 2248SOL    HW1 6743   1.765   3.458   0.482  1.8838  1.3902 -1.1369
 2248SOL    HW2 6744   1.797   3.312   0.507  2.1334  1.9658  2.4189
 2249SOL     OW 6745   2.647   4.406   3.590 -0.1154 -0.4410  0.6446
 2249SOL    HW1 6746   2.741   4.387   3.589  0.2152  1.0551  1.0514
 2249SOL    HW2 6747   2.620   4.400   3.499  0.3560 -0.9265  0.5327
 2250SOL     OW 6748   1.917   3.201   0.263  0.1817 -0.2170 -0.2479
 2250SOL    HW1 6749   1.998   3.187   0.313 -0.2240 -1.1009  0.1897
 2250SOL    HW2 6750   1.866   3.261   0.316  0.2880 -0.1545 -0.2155
 2251SOL     OW 6751   0.577   0.499   1.065  0.0973  0.4985 -0.0031
 2251SOL    HW1 6752   0.517   0.503   1.139 -0.9024 -1.8203 -0.5997
 2251SOL    HW2 6753   0.612   0.410   1.067 -1.2646 -0.2533 -3.2382
 2252SOL     OW 6754   3.178   0.052   1.695 -0.0125  0.0062 -0.2088
 2252SOL    HW1 6755   3.174   0.021   1.605 -1.6932  0.3418 -0.2945
 2252SOL    HW2 6756   3.142   0.141   1.691 -0.2661 -0.0378  0.8119
 2253SOL     OW 6757   1.640   4.175   2.427  0.2228 -0.4434 -0.2406
 2253SOL    HW1 6758   1.604   4.175   2.516 -0.2461 -0.3224 -0.4295
 2253SOL    HW2 6759   1.703   4.247   2.426 -0.7668  0.4391 -0.4045
 2254SOL     OW 6760   0.446   1.948   3.476  0.3348  0.2326  0.1674
 2254SOL    HW1 6761   0.454   1.932   3.570  1.1191 -0.2583  0.0236
 2254SOL    HW2 6762   0.486   2.034   3.463  0.6722  0.0812  0.2085
 2255SOL     OW 6763   2.574   4.427   3.307  0.5285 -0.5494 -0.2941
 2255SOL    HW1 6764   2.598   4.339   3.279  1.0955 -0.5739  0.2397
 2255SOL    HW2 6765   2.606   4.484   3.237 -1.1291 -0.8511 -1.3632
 2256SOL     OW 6766   1.731   3.162   0.625 -0.3012 -0.2730  0.1993
 2256SOL    HW1 6767   1.761   3.130   0.710 -1.2083 -0.1320  0.5878
 2256SOL    HW2 6768   1.652   3.212   0.645 -0.9998 -0.9337 -0.8124
 2257SOL     OW 6769   0.848   2.449   0.622  0.0778  0.2441  0.0939
 2257SOL    HW1 6770   0.881   2.468   0.710 -0.1045  0.4439  0.1190
 2257SOL    HW2 6771   0.805   2.530   0.594  1.1493  0.5710 -0.6551
 2258SOL     OW 6772   1.614   3.567   2.519 -0.0629  0.4911 -0.0681
 2258SOL    HW1 6773   1.657   3.597   2.599  1.5784  0.9804 -1.0621
 2258SOL    HW2 6774   1.682   3.576   2.452 -1.9028  1.8613 -1.8724
 2259SOL     OW 6775   2.557  -0.029   2.931 -0.4645  0.4077 -1.3364
 2259SOL    HW1 6776   2.481   0.029   2.937  0.4016  1.5763 -1.3419
 2259SOL    HW2 6777   2.620   0.009   2.992  1.0522  0.9329 -3.1576
 2260SOL     OW 6778   3.066   3.315   2.435  0.3534 -0.2116 -0.3655
 2260SOL    HW1 6779   3.113   3.399   2.442  1.4459 -0.8456  0.2537
 2260SOL    HW2 6780   3.113   3.257   2.495  0.9172 -1.8719 -2.3238
 2261SOL     OW 6781   3.277   4.112   2.401 -0.3442 -0.2223 -0.2026
 2261SOL    HW1 6782   3.287   4.046   2.332  0.9158  0.2689 -0.5236
 2261SOL    HW2 6783   3.359   4.160   2.400 -0.3869 -0.0331  1.4870
 2262SOL     OW 6784   1.949   1.827   1.758 -0.3346 -0.7222  0.6326
 2262SOL    HW1 6785   1.982   1.911   1.728 -0.9842 -0.4724  0.5949
 2262SOL    HW2 6786   1.976   1.765   1.691 -1.5353 -0.2157 -0.3651
 2263SOL     OW 6787   1.678   2.609   3.649  0.1962 -0.4382  0.7748
 2263SOL    HW1 6788   1.604   2.633   3.706  0.3680 -1.4012  1.4296
 2263SOL    HW2 6789   1.675   2.513   3.645  2.1196 -0.5814  1.7822
 2264SOL     OW 6790   2.228   2.793   1.488  0.0511 -0.5225 -0.0802
 2264SOL    HW1 6791   2.317   2.769   1.463  0.0770  0.0920 -0.5825
 2264SOL    HW2 6792   2.238   2.833   1.575  0.4060  0.4947 -0.5769
 2265SOL     OW 6793   0.717   4.418   0.390 -0.6620  0.1499 -0.0310
 2265SOL    HW1 6794   0.796   4.363   0.389  0.4264  1.6505 -0.0941
 2265SOL    HW2 6795   0.694   4.425   0.483 -0.1905  0.4180  0.0695
 2266SOL     OW 6796   4.293   1.746   0.769 -0.3709 -0.0521 -0.0882
 2266SOL    HW1 6797   4.368   1.691   0.790 -0.6519 -0.6656 -0.6847
 2266SOL    HW2 6798   4.217   1.690   0.781 -0.7907  0.7004  0.9887
 2267SOL     OW 6799   3.852   0.769   0.626  0.2119 -0.0647  0.3724
 2267SOL    HW1 6800   3.897   0.722   0.556  2.2943  2.2591 -0.0066
 2267SOL    HW2 6801   3.917   0.773   0.696 -0.9425 -0.1609  1.4744
 2268SOL     OW 6802   2.587   2.268   1.516 -0.3543 -0.6012 -0.3773
 2268SOL    HW1 6803   2.613   2.349   1.472 -1.2525 -0.3911 -0.5438
 2268SOL    HW2 6804   2.650   2.203   1.486 -0.5297 -0.2975 -1.4495
 2269SOL     OW 6805   0.828   4.434   2.525  0.0388  0.0736  0.6777
 2269SOL    HW1 6806   0.920   4.409   2.529 -0.0453 -1.1375 -2.1589
 2269SOL    HW2 6807   0.781   4.350   2.519 -1.4970  0.5691  3.8161
 2270SOL     OW 6808   3.990   1.301   0.872  0.1847 -0.0794  0.2991
 2270SOL    HW1 6809   4.019   1.243   0.942 -0.7870  0.7081  1.3979
 2270SOL    HW2 6810   3.906   1.265   0.843  0.6264 -0.4581 -0.5535
 2271SOL     OW 6811   0.084   0.598   1.634  0.2331 -0.3534  0.1672
 2271SOL    HW1 6812   0.096   0.515   1.678 -0.9727  0.0262  1.2566
 2271SOL    HW2 6813   0.147   0.657   1.676  0.1176 -0.3705  0.3658
 2272SOL     OW 6814   0.278   1.347   1.854  0.7607  0.1040  0.2541
 2272SOL    HW1 6815   0.355   1.372   1.905  0.1830  2.2158  0.1447
 2272SOL    HW2 6816   0.205   1.387   1.900 -0.0464 -0.0610 -0.8607
 2273SOL     OW 6817   2.287   3.386   2.878 -0.8331  0.6455  0.3201
 2273SOL    HW1 6818   2.308   3.473   2.911 -1.0466  1.5098 -1.6583
 2273SOL    HW2 6819   2.204   3.398   2.831  0.2808 -0.0557 -1.9691
 2274SOL     OW 6820   0.839   3.763   1.995 -0.4793 -0.5075  0.3680
 2274SOL    HW1 6821   0.898   3.747   1.922 -1.1326 -1.1731 -0.0288
 2274SOL    HW2 6822   0.873   3.708   2.066 -0.1267 -0.2304  0.4152
 2275SOL     OW 6823   1.711   4.301   3.196  0.1695  0.1856  0.0575
 2275SOL    HW1 6824   1.746   4.388   3.176  0.6076  0.0850  0.3677
 2275SOL    HW2 6825   1.702   4.301   3.291 -1.1380  0.3749 -0.0466
 2276SOL     OW 6826   1.431   3.862   4.456 -0.4484 -0.0742  0.1322
 2276SOL    HW1 6827   1.502   3.797   4.461 -0.0435  0.3206 -0.4667
 2276SOL    HW2 6828   1.394   3.850   4.369 -0.3835  0.4916  0.0283
 2277SOL     OW 6829   1.537   0.329   2.540  0.3675  0.5503 -0.3162
 2277SOL    HW1 6830   1.590   0.371   2.472  0.5677  1.6836  0.4963
 2277SOL    HW2 6831   1.465   0.391   2.555  0.6946  0.6469  0.9554
 2278SOL     OW 6832   3.487   0.103   1.483  0.2291  0.4720 -0.0548
 2278SOL    HW1 6833   3.578   0.078   1.468  0.8375  1.4583  1.6677
 2278SOL    HW2 6834   3.440   0.020   1.491  1.5458 -0.1645  1.9845
 2279SOL     OW 6835   3.337   2.739   3.159 -0.1573 -0.2920  0.0061
 2279SOL    HW1 6836   3.311   2.826   3.188 -0.8431 -0.3364 -0.4452
 2279SOL    HW2 6837   3.275   2.679   3.202  0.4550 -0.5827  0.5004
 2280SOL     OW 6838   1.183   3.838   2.062  0.5643  0.0517  0.1125
 2280SOL    HW1 6839   1.135   3.789   1.995 -1.3612  1.1411  0.6110
 2280SOL    HW2 6840   1.234   3.771   2.108 -0.7794 -1.2674 -0.2074
 2281SOL     OW 6841   4.440   2.827   3.700 -0.5855 -0.0618  0.5620
 2281SOL    HW1 6842   4.464   2.746   3.654 -0.1186 -0.8307  2.1003
 2281SOL    HW2 6843   4.517   2.882   3.693 -1.1865  0.6247 -1.1960
 2282SOL     OW 6844   3.317   2.047   4.402 -0.2630 -0.4652  0.0894
 2282SOL    HW1 6845   3.222   2.055   4.409 -0.1117  1.5638  0.3024
 2282SOL    HW2 6846   3.334   1.954   4.417 -2.1766 -0.7988  0.4328
 2283SOL     OW 6847   2.981   1.193   3.721 -0.0948  0.2938  0.0583
 2283SOL    HW1 6848   2.921   1.148   3.781  0.1444  0.5481  0.4890
 2283SOL    HW2 6849   2.937   1.275   3.701 -1.4976 -0.8981 -2.3073
 2284SOL     OW 6850   1.295   3.329   1.653 -0.5272  0.0051 -0.5546
 2284SOL    HW1 6851   1.224   3.274   1.618  0.4394 -1.6017 -0.0830
 2284SOL    HW2 6852   1.370   3.310   1.596  0.0686  0.1504  0.1707
 2285SOL     OW 6853   1.686   3.607   0.541  0.0184  0.1536  0.2079
 2285SOL    HW1 6854   1.656   3.646   0.460  1.5507  0.0010 -0.4590
 2285SOL    HW2 6855   1.616   3.625   0.604  0.1041  2.8635 -0.3734
 2286SOL     OW 6856   1.973   3.901   0.561  0.4085 -0.3491  0.4887
 2286SOL    HW1 6857   1.968   3.835   0.492 -0.5572 -0.1746  0.3709
 2286SOL    HW2 6858   1.882   3.929   0.573  0.8706  1.4127  0.1033
 2287SOL     OW 6859   1.504   1.056   0.782  0.1021  0.0090 -0.1097
 2287SOL    HW1 6860   1.423   1.011   0.756  0.3463 -0.3460 -0.2673
 2287SOL    HW2 6861   1.556   0.988   0.825  0.3938  0.1891 -0.1764
 2288SOL     OW 6862   0.764   1.566   2.978 -0.2601  0.0269 -0.1779
 2288SOL    HW1 6863   0.714   1.489   3.007 -0.7900 -0.8181 -3.0037
 2288SOL    HW2 6864   0.822   1.532   2.909 -0.4561  2.1214 -1.4497
 2289SOL     OW 6865   1.907  -0.001   2.956  0.2229  0.2707  0.3649
 2289SOL    HW1 6866   1.866   0.019   3.040 -0.1111  0.9127  0.0509
 2289SOL    HW2 6867   1.965   0.073   2.938 -1.4940  1.3382 -1.0993
 2290SOL     OW 6868   2.805   2.030   0.721  0.1985 -0.2312  0.3626
 2290SOL    HW1 6869   2.847   1.945   0.735 -0.4979 -0.3359  1.9954
 2290SOL    HW2 6870   2.748   2.016   0.645  0.9245 -0.9058 -0.0674
 2291SOL     OW 6871   2.684   0.184   3.769  0.0835  0.1219  0.2275
 2291SOL    HW1 6872   2.725   0.106   3.806  0.3685 -0.1574 -0.6611
 2291SOL    HW2 6873   2.606   0.151   3.724 -1.2900  0.6701  2.0855
 2292SOL     OW 6874   3.400   1.245   0.417 -0.3020  0.0736 -0.4759
 2292SOL    HW1 6875   3.348   1.308   0.368 -1.1255 -0.3521 -0.1570
 2292SOL    HW2 6876   3.465   1.213   0.353  0.1133  1.2081 -0.6440
 2293SOL     OW 6877   0.032   4.106   3.721  0.0410  0.1236  0.3929
 2293SOL    HW1 6878  -0.036   4.064   3.667  0.2990 -0.0435  0.1906
 2293SOL    HW2 6879   0.011   4.079   3.810 -0.4826  0.5301  0.3967
 2294SOL     OW 6880   0.028   1.123   0.179 -0.4926  0.0705  0.1797
 2294SOL    HW1 6881  -0.030   1.154   0.248 -0.6607 -1.4594  0.7619
 2294SOL    HW2 6882   0.108   1.096   0.224  0.2735  1.1587 -0.4950
 2295SOL     OW 6883   2.556   0.686   1.173  0.5750 -0.4480 -0.2288
 2295SOL    HW1 6884   2.505   0.744   1.117  1.4523 -0.0928 -0.6820
 2295SOL    HW2 6885   2.502   0.607   1.181 -1.3548  0.9780  1.7069
 2296SOL     OW 6886   0.528   3.517   2.251  0.4909  0.5808  0.1258
 2296SOL    HW1 6887   0.433   3.526   2.252  0.5653  1.7148 -0.8750
 2296SOL    HW2 6888   0.546   3.457   2.178  0.5367 -0.0519  0.6413
 2297SOL     OW 6889   3.504   4.261   4.431  0.7023 -0.2946 -0.6142
 2297SOL    HW1 6890   3.585   4.217   4.459  2.6786  3.6494  0.5756
 2297SOL    HW2 6891   3.474   4.308   4.509  0.4317  2.7133 -2.4004
 2298SOL     OW 6892   1.360   1.970   1.584 -0.1024  0.1704  0.4273
 2298SOL    HW1 6893   1.282   1.939   1.630 -0.6747  0.7016 -0.1626
 2298SOL    HW2 6894   1.327   2.004   1.501  0.8161 -0.0206 -0.0254
 2299SOL     OW 6895   0.879   3.548   3.936  0.3066  0.9570 -0.0158
 2299SOL    HW1 6896   0.800   3.582   3.895  0.8364  0.3662 -1.6213
 2299SOL    HW2 6897   0.858   3.457   3.958  0.6280  0.6668 -0.8299
 2300SOL     OW 6898   4.006   0.214   0.867 -0.4521  0.2015  0.4339
 2300SOL    HW1 6899   3.934   0.170   0.822  1.7047 -0.3623 -2.8314
 2300SOL    HW2 6900   4.008   0.302   0.829  2.3583 -0.7583 -2.1118
 2301SOL     OW 6901   1.392   1.217   1.873 -0.4000  0.4216  0.3626
 2301SOL    HW1 6902   1.440   1.137   1.893 -1.3785  0.0166  1.1286
 2301SOL    HW2 6903   1.442   1.257   1.801 -0.9373 -1.8074 -1.3716
 2302SOL     OW 6904   0.891   3.778   0.849 -0.3399 -0.1242  0.3377
 2302SOL    HW1 6905   0.928   3.840   0.786  0.3797 -1.4801 -0.6415
 2302SOL    HW2 6906   0.834   3.722   0.796  0.5104 -1.4823  0.8205
 2303SOL     OW 6907   1.501   4.259   0.931 -0.0587  0.0159 -0.2586
 2303SOL    HW1 6908   1.512   4.257   1.026 -1.1219 -1.0680 -0.1352
 2303SOL    HW2 6909   1.415   4.299   0.918  0.4209  0.8995 -0.8175
 2304SOL     OW 6910   1.294   2.256   1.096 -0.5205 -0.2131 -0.4483
 2304SOL    HW1 6911   1.233   2.227   1.028  0.7917  1.2486 -2.3902
 2304SOL    HW2 6912   1.347   2.178   1.116 -0.3311 -0.4651 -1.8286
 2305SOL     OW 6913   2.366   1.259   3.179 -0.2321  0.2060 -0.4061
 2305SOL    HW1 6914   2.367   1.322   3.108 -1.7177  0.2430 -0.4357
 2305SOL    HW2 6915   2.387   1.309   3.257  1.0551  0.2317 -0.7471
 2306SOL     OW 6916   1.752   3.001   2.445  0.6154 -0.4933 -0.0726
 2306SOL    HW1 6917   1.743   3.096   2.441 -0.7021 -0.5959  0.1442
 2306SOL    HW2 6918   1.679   2.968   2.392  0.2792 -1.4025  0.9350
 2307SOL     OW 6919   4.294   2.191   4.334  0.0647 -0.1114  0.2171
 2307SOL    HW1 6920   4.199   2.196   4.325 -0.0858 -2.8073 -0.5842
 2307SOL    HW2 6921   4.317   2.265   4.390 -2.4787  0.6586  0.3588
 2308SOL     OW 6922   1.754   0.999   2.940 -0.1927 -0.1714  0.1866
 2308SOL    HW1 6923   1.846   1.006   2.917  0.4191  0.4331  2.5160
 2308SOL    HW2 6924   1.746   0.915   2.984 -0.5925  0.0881  0.6223
 2309SOL     OW 6925   4.479   1.009   1.742 -0.1259  0.4581  0.2998
 2309SOL    HW1 6926   4.482   1.086   1.799 -0.1864  0.3265  0.4829
 2309SOL    HW2 6927   4.509   0.937   1.798 -1.3607  0.0961  0.5386
 2310SOL     OW 6928   0.933   2.883   0.930  0.0194  0.5599 -0.2339
 2310SOL    HW1 6929   0.995   2.951   0.957  0.0440  0.6190 -0.4438
 2310SOL    HW2 6930   0.939   2.880   0.835 -0.5218  0.7771 -0.2823
 2311SOL     OW 6931   0.056   1.321   0.924  0.5773 -0.0317  0.1613
 2311SOL    HW1 6932   0.140   1.323   0.969  0.6318 -0.8307  0.1203
 2311SOL    HW2 6933   0.027   1.230   0.932  0.4296 -0.1117 -1.1163
 2312SOL     OW 6934   1.258   1.438   0.671  0.1313 -0.3000 -0.0557
 2312SOL    HW1 6935   1.326   1.432   0.603  1.0669 -1.6744  0.9471
 2312SOL    HW2 6936   1.265   1.355   0.718 -1.1213  0.2532  1.1417
 2313SOL     OW 6937   0.568   1.552   0.054  0.3765  0.2097  0.2631
 2313SOL    HW1 6938   0.615   1.528   0.134 -2.3787 -1.5909  1.4938
 2313SOL    HW2 6939   0.533   1.469   0.021 -1.1359  1.3113 -1.0614
 2314SOL     OW 6940   3.230   1.444   0.619 -0.2513  0.2393 -0.7945
 2314SOL    HW1 6941   3.277   1.449   0.702  0.1302 -0.8584 -0.9276
 2314SOL    HW2 6942   3.266   1.517   0.567 -0.2468  0.7209 -0.1324
 2315SOL     OW 6943   0.331   1.061   0.115  0.0340 -0.5079 -0.0463
 2315SOL    HW1 6944   0.269   0.989   0.102 -0.7420  0.5744 -3.5085
 2315SOL    HW2 6945   0.415   1.024   0.088  0.1136 -0.7866  0.5671
 2316SOL     OW 6946   4.207   4.413   2.935  0.4597 -0.4702  0.2492
 2316SOL    HW1 6947   4.153   4.404   2.856  1.4728 -3.3222 -0.2179
 2316SOL    HW2 6948   4.156   4.370   3.003  1.1120 -1.1459  0.3202
 2317SOL     OW 6949   3.069   3.869   0.522  0.3330  0.2799  0.0044
 2317SOL    HW1 6950   3.099   3.941   0.577  0.5006  0.0357  0.2324
 2317SOL    HW2 6951   2.991   3.904   0.477  0.3890  0.5857  0.1459
 2318SOL     OW 6952   3.348   2.408   0.568  0.2247 -0.0168 -0.7662
 2318SOL    HW1 6953   3.416   2.393   0.503 -1.8430  1.7549 -3.5742
 2318SOL    HW2 6954   3.287   2.335   0.557  0.2396 -0.1083 -0.2651
 2319SOL     OW 6955   2.932   2.692   2.926  0.0525 -0.7428 -0.1695
 2319SOL    HW1 6956   2.941   2.787   2.941  0.3028 -0.6550 -0.8387
 2319SOL    HW2 6957   3.022   2.660   2.922  0.0484 -0.6541 -2.0462
 2320SOL     OW 6958   1.704   3.780   3.411  0.2037  0.2154 -0.0249
 2320SOL    HW1 6959   1.673   3.804   3.324 -0.8416  0.2080  0.3310
 2320SOL    HW2 6960   1.742   3.861   3.446  1.1437  0.0817 -0.6778
 2321SOL     OW 6961   1.999   3.546   2.880 -0.4053  0.2598 -0.0534
 2321SOL    HW1 6962   2.025   3.607   2.811 -0.3068  0.7791  0.4305
 2321SOL    HW2 6963   1.937   3.596   2.933 -0.5944 -0.1854  0.1415
 2322SOL     OW 6964   2.976   4.009   3.512 -0.1662  0.3373 -0.7005
 2322SOL    HW1 6965   3.071   3.999   3.523 -0.3750 -1.1880 -0.0469
 2322SOL    HW2 6966   2.948   3.929   3.469 -1.2633  0.4598 -0.2435
 2323SOL     OW 6967   3.003   0.634   0.902  0.1597 -0.3777 -0.1342
 2323SOL    HW1 6968   2.973   0.603   0.817 -0.5941 -2.0083  0.6822
 2323SOL    HW2 6969   2.957   0.717   0.915  0.8830  0.2843 -1.6303
 2324SOL     OW 6970   2.766   2.151   2.191  0.1520 -0.1091 -0.1604
 2324SOL    HW1 6971   2.732   2.161   2.280 -1.0097 -2.1209 -0.3192
 2324SOL    HW2 6972   2.709   2.205   2.137  0.3088  0.4165  0.1941
 2325SOL     OW 6973   3.516   1.661   0.252  0.3607 -0.4451 -0.1133
 2325SOL    HW1 6974   3.552   1.707   0.327  0.6513  2.5359 -1.9124
 2325SOL    HW2 6975   3.592   1.641   0.197  0.0286 -1.4277 -0.2341
 2326SOL     OW 6976   0.388   1.203   3.137  0.2464  0.1177  0.4939
 2326SOL    HW1 6977   0.318   1.189   3.074 -0.1496  0.1307  0.9224
 2326SOL    HW2 6978   0.348   1.184   3.222  1.0530 -0.9186  0.6570
 2327SOL     OW 6979   3.016   1.268   2.838 -0.0233 -0.1472  0.1593
 2327SOL    HW1 6980   3.100   1.223   2.829 -0.0388 -0.0383 -0.5570
 2327SOL    HW2 6981   3.006   1.281   2.933  1.4824  1.1952  0.1712
 2328SOL     OW 6982   2.524   1.804   1.189 -0.4030  0.0053  0.5501
 2328SOL    HW1 6983   2.610   1.767   1.171 -0.2664 -0.2446  1.6513
 2328SOL    HW2 6984   2.498   1.766   1.273 -0.9401  1.1982  0.9579
 2329SOL     OW 6985   2.073   1.080   0.135  0.6554 -0.3622  0.2769
 2329SOL    HW1 6986   1.997   1.076   0.194  0.4449 -0.2704  0.0140
 2329SOL    HW2 6987   2.146   1.047   0.187  0.9361  1.7185  1.3260
 2330SOL     OW 6988   0.594   2.370   3.096 -0.1475 -0.0851  0.1675
 2330SOL    HW1 6989   0.576   2.464   3.094 -2.6374 -0.5174  0.0433
 2330SOL    HW2 6990   0.536   2.333   3.030  1.9333 -1.5926 -0.9531
 2331SOL     OW 6991   4.131   0.393   3.107  1.1303  0.4925 -0.3130
 2331SOL    HW1 6992   4.186   0.328   3.064  1.8271  1.6069 -1.1622
 2331SOL    HW2 6993   4.108   0.455   3.037 -1.1942  0.1050  0.0113
 2332SOL     OW 6994   1.850   0.238   4.347  0.0239  0.1544  0.3105
 2332SOL    HW1 6995   1.903   0.208   4.274 -1.8322  1.2923 -1.6391
 2332SOL    HW2 6996   1.864   0.174   4.416  0.4118 -2.0658 -1.7099
 2333SOL     OW 6997   0.613   1.253   0.611  0.0731  0.0243  0.4044
 2333SOL    HW1 6998   0.700   1.235   0.575  0.3631 -1.4836  1.7391
 2333SOL    HW2 6999   0.552   1.210   0.550  0.1848  1.4416 -0.7655
 2334SOL     OW 7000   3.091   3.836   1.143  0.0672  0.7795  0.4094
 2334SOL    HW1 7001   3.100   3.766   1.078 -1.2036  2.6492 -1.9767
 2334SOL    HW2 7002   3.179   3.848   1.177  0.5950 -0.9654 -0.1884
 2335SOL     OW 7003   1.643   0.912   3.331  0.2290  0.2608  0.2259
 2335SOL    HW1 7004   1.561   0.961   3.338 -0.2468 -0.5316  0.2949
 2335SOL    HW2 7005   1.702   0.972   3.284 -1.2268 -0.1657 -2.3344
 2336SOL     OW 7006   3.069   1.666   3.559 -0.2269  0.4876  0.4256
 2336SOL    HW1 7007   3.109   1.606   3.495  1.7847  1.8437  0.3098
 2336SOL    HW2 7008   2.992   1.700   3.514 -0.9326 -1.3368  0.1773
 2337SOL     OW 7009   1.350   2.044   3.134 -0.3355 -0.5732  0.3238
 2337SOL    HW1 7010   1.430   2.070   3.088 -1.5409 -0.5632 -1.9303
 2337SOL    HW2 7011   1.308   2.127   3.156 -0.3265 -0.5791  0.3623
 2338SOL     OW 7012   4.054   3.797   0.699  0.0576  0.3976 -0.2330
 2338SOL    HW1 7013   4.059   3.829   0.789  0.9593 -0.5103  0.0556
 2338SOL    HW2 7014   3.977   3.741   0.698  0.4611 -0.1804  0.1812
 2339SOL     OW 7015   2.611   3.154   0.634  0.2809 -0.7421 -0.2893
 2339SOL    HW1 7016   2.699   3.156   0.672  0.3418 -2.0911 -0.3170
 2339SOL    HW2 7017   2.614   3.082   0.570 -0.9144 -0.9644 -0.1167
 2340SOL     OW 7018   0.281   2.647   3.221 -0.5301  0.2927  0.0051
 2340SOL    HW1 7019   0.343   2.579   3.248  0.4613  0.9038 -0.6511
 2340SOL    HW2 7020   0.300   2.661   3.128 -2.5352 -0.3916 -0.5455
 2341SOL     OW 7021   2.073   0.463   4.158  0.0907 -0.4977 -0.2707
 2341SOL    HW1 7022   2.031   0.440   4.241  0.1077 -0.3128 -0.2096
 2341SOL    HW2 7023   2.053   0.555   4.146  0.7919 -0.3061 -0.0474
 2342SOL     OW 7024   2.133   3.975   1.046 -0.3620  0.7172 -0.1637
 2342SOL    HW1 7025   2.054   4.028   1.043 -1.3569 -0.6839  0.0794
 2342SOL    HW2 7026   2.160   3.968   0.954  1.0457  3.3491 -0.0424
 2343SOL     OW 7027   0.501   2.617   1.352  0.3044 -0.1707 -0.2228
 2343SOL    HW1 7028   0.524   2.530   1.319 -0.0859 -0.3657  0.0019
 2343SOL    HW2 7029   0.584   2.662   1.361  0.7217 -1.2109  1.5607
 2344SOL     OW 7030   2.850   4.225   2.308  0.5008 -0.3003  0.0142
 2344SOL    HW1 7031   2.887   4.215   2.396  0.3161 -0.0493  0.1235
 2344SOL    HW2 7032   2.858   4.319   2.290  0.7365 -0.3866 -0.3246
 2345SOL     OW 7033   3.213   2.750   0.471 -0.3309 -0.4130 -0.1003
 2345SOL    HW1 7034   3.244   2.760   0.381 -0.0300  1.5998  0.1801
 2345SOL    HW2 7035   3.286   2.708   0.518  0.0490 -0.1871 -0.4895
 2346SOL     OW 7036   1.105   0.596   2.861  0.3562  0.0400  0.0589
 2346SOL    HW1 7037   1.037   0.562   2.921 -1.0069  1.8792 -0.3567
 2346SOL    HW2 7038   1.068   0.582   2.774  1.3176 -0.5356 -0.2633
 2347SOL     OW 7039   2.127   1.419   0.667  0.4231  0.3508 -0.0278
 2347SOL    HW1 7040   2.099   1.329   0.682 -1.0846  0.9448  0.8836
 2347SOL    HW2 7041   2.209   1.411   0.619  0.9085 -1.5215  1.0438
 2348SOL     OW 7042   3.603   1.392   4.092  0.2184  0.0878 -0.2850
 2348SOL    HW1 7043   3.545   1.439   4.032  0.2675  3.4816  2.0473
 2348SOL    HW2 7044   3.676   1.452   4.106  0.6486 -0.9247  2.4379
 2349SOL     OW 7045   2.706   4.300   0.890  0.6836  0.0377 -0.0185
 2349SOL    HW1 7046   2.795   4.264   0.881  0.8710  0.6298 -0.6110
 2349SOL    HW2 7047   2.720   4.394   0.899  0.0400  0.3734 -2.0515
 2350SOL     OW 7048   2.600   1.725   4.131 -0.2400 -0.1211 -0.4088
 2350SOL    HW1 7049   2.542   1.737   4.056  0.0802  1.4429 -0.4556
 2350SOL    HW2 7050   2.552   1.762   4.205 -0.4046 -1.3219  0.1046
 2351SOL     OW 7051   1.009   0.124   2.217 -0.1583  0.2069  0.6667
 2351SOL    HW1 7052   1.079   0.060   2.231 -0.1973 -0.4534 -1.6320
 2351SOL    HW2 7053   0.954   0.085   2.149 -0.4729  2.4589 -0.4767
 2352SOL     OW 7054   1.973   0.689   4.040 -0.1867 -0.5749  0.3017
 2352SOL    HW1 7055   1.892   0.676   3.990  1.6566 -1.1730 -2.7338
 2352SOL    HW2 7056   1.962   0.775   4.080 -2.5175 -0.8594  0.4208
 2353SOL     OW 7057   3.209   2.529   3.740  0.1932 -0.1488 -0.2617
 2353SOL    HW1 7058   3.275   2.561   3.802 -0.6238  0.9528  0.0667
 2353SOL    HW2 7059   3.246   2.550   3.654  0.3615  0.2978 -0.0864
 2354SOL     OW 7060   0.936   3.144   2.536  0.3643  0.2461 -0.3125
 2354SOL    HW1 7061   0.847   3.167   2.564 -0.0810  0.7328 -2.0080
 2354SOL    HW2 7062   0.923   3.079   2.466  1.4597 -1.6893  1.1963
 2355SOL     OW 7063   1.019   2.872   1.675  0.1039  0.8053 -0.2190
 2355SOL    HW1 7064   0.974   2.787   1.675 -0.5909  1.1454 -1.1888
 2355SOL    HW2 7065   1.112   2.851   1.669 -0.0497  0.1054 -0.2021
 2356SOL     OW 7066   0.119   0.231   2.019  0.2564  0.8061  0.0010
 2356SOL    HW1 7067   0.085   0.141   2.025  0.1530  0.4436 -3.6683
 2356SOL    HW2 7068   0.052   0.278   1.969  0.4784  2.8973  1.5631
 2357SOL     OW 7069   1.012   0.168   3.059 -0.5392  0.3799  0.0569
 2357SOL    HW1 7070   1.059   0.085   3.057  0.1227  0.7537 -0.3818
 2357SOL    HW2 7071   1.004   0.189   3.152 -0.4897 -0.0575  0.1602
 2358SOL     OW 7072   3.847   3.719   0.355 -0.4549 -0.1249 -0.1162
 2358SOL    HW1 7073   3.786   3.721   0.281 -2.2806 -3.0584  1.1189
 2358SOL    HW2 7074   3.798   3.760   0.427  0.4026  0.6109  0.0611
 2359SOL     OW 7075   0.581   0.289   3.491 -0.5394 -0.2150  0.0158
 2359SOL    HW1 7076   0.490   0.276   3.464 -0.5161  0.3982 -0.3903
 2359SOL    HW2 7077   0.632   0.238   3.429 -0.6294 -0.9253  0.5231
 2360SOL     OW 7078   2.009   0.348   2.447 -0.0665 -0.1509 -0.1919
 2360SOL    HW1 7079   1.959   0.354   2.529 -0.4659  0.0508 -0.4478
 2360SOL    HW2 7080   1.998   0.434   2.406  2.0393  0.5718  0.6190
 2361SOL     OW 7081   1.299   0.668   3.050  0.1146  0.4940 -0.2490
 2361SOL    HW1 7082   1.250   0.686   2.970 -0.6505 -0.7136 -0.0708
 2361SOL    HW2 7083   1.368   0.736   3.052  0.9392 -0.1890 -2.5685
 2362SOL     OW 7084   4.226   2.516   4.362 -1.0415  0.4347  0.6367
 2362SOL    HW1 7085   4.181   2.530   4.279 -2.0911  0.4186  1.1940
 2362SOL    HW2 7086   4.310   2.562   4.352 -0.7307 -0.3679 -0.7802
 2363SOL     OW 7087   3.441   1.750   4.390 -0.3871 -0.5598 -0.0734
 2363SOL    HW1 7088   3.394   1.737   4.308  0.7031  0.5426 -0.9160
 2363SOL    HW2 7089   3.533   1.737   4.368  0.2669  2.7059  0.1924
 2364SOL     OW 7090   1.292   3.372   1.020  0.3617  0.3467  0.1401
 2364SOL    HW1 7091   1.292   3.279   0.997  1.2214  0.5869 -0.9083
 2364SOL    HW2 7092   1.202   3.391   1.044 -0.1275 -0.4327 -1.0185
 2365SOL     OW 7093   0.509   3.961   2.597  0.2539  0.7889  0.1132
 2365SOL    HW1 7094   0.512   4.016   2.519 -1.2060  0.4103 -0.2492
 2365SOL    HW2 7095   0.548   4.015   2.666 -0.3958  1.9695 -0.4160
 2366SOL     OW 7096   2.014   3.844   2.061  0.3892 -0.0999  0.7645
 2366SOL    HW1 7097   2.069   3.918   2.034  0.8724 -0.2621  1.2774
 2366SOL    HW2 7098   1.926   3.880   2.066  0.5354  0.3069  0.4808
 2367SOL     OW 7099   4.444   3.258   2.771 -0.4446  0.1226  0.0224
 2367SOL    HW1 7100   4.500   3.213   2.834  0.6014  0.3211 -0.7477
 2367SOL    HW2 7101   4.447   3.202   2.693  0.5186  1.2759 -0.7931
 2368SOL     OW 7102   2.320   2.468   0.658 -0.2674  0.0791  0.6332
 2368SOL    HW1 7103   2.273   2.390   0.629 -0.6884  0.9282 -1.1241
 2368SOL    HW2 7104   2.413   2.444   0.650 -0.3705 -0.7476  1.6667
 2369SOL     OW 7105   3.655   0.563   4.260  0.4773 -0.0424  0.3835
 2369SOL    HW1 7106   3.720   0.495   4.241 -1.4177 -1.2693 -2.2049
 2369SOL    HW2 7107   3.571   0.524   4.235 -0.9403  2.5302  0.8187
 2370SOL     OW 7108   0.302   4.089   1.303 -0.5962 -0.3427  0.2887
 2370SOL    HW1 7109   0.263   4.146   1.236 -0.0662 -0.3919 -0.0696
 2370SOL    HW2 7110   0.231   4.073   1.364 -0.7322  0.7942  0.4625
 2371SOL     OW 7111   3.226   4.445   2.317 -0.1318 -0.2007 -0.0300
 2371SOL    HW1 7112   3.258   4.373   2.263 -0.6112 -0.2364 -0.2707
 2371SOL    HW2 7113   3.215   4.518   2.257 -1.2267 -0.4063 -0.1083
 2372SOL     OW 7114   4.261   0.979   0.809  0.1944 -1.1902 -0.9498
 2372SOL    HW1 7115   4.205   0.955   0.734  0.7005 -0.5774 -1.5334
 2372SOL    HW2 7116   4.233   0.920   0.879 -0.9406 -1.1384 -1.3352
 2373SOL     OW 7117   3.866   2.907   3.216 -0.0587 -0.0927 -0.3780
 2373SOL    HW1 7118   3.810   2.985   3.218 -1.3729 -1.0187  0.5718
 2373SOL    HW2 7119   3.863   2.873   3.305  0.2997 -1.3626 -0.8264
 2374SOL     OW 7120   3.722   1.860   1.374  0.0096  0.2919 -0.2014
 2374SOL    HW1 7121   3.817   1.863   1.371  0.1770  0.1456  2.5327
 2374SOL    HW2 7122   3.702   1.821   1.460 -2.5122  1.6458 -0.0901
 2375SOL     OW 7123   3.164   4.353   2.910 -0.1041  0.4561 -0.2575
 2375SOL    HW1 7124   3.087   4.322   2.956 -1.7182 -0.2687 -3.1664
 2375SOL    HW2 7125   3.189   4.279   2.854  1.7783  1.2238 -0.4959
 2376SOL     OW 7126   4.413   2.205   2.235  0.2573  0.6028  0.0244
 2376SOL    HW1 7127   4.421   2.277   2.298 -0.0781  0.6225  0.0452
 2376SOL    HW2 7128   4.451   2.130   2.280 -0.8663  0.3857  0.6355
 2377SOL     OW 7129   3.944   2.789   0.033 -0.6075 -0.0342  0.1468
 2377SOL    HW1 7130   4.012   2.726   0.058 -0.8399 -1.2882 -2.1066
 2377SOL    HW2 7131   3.990   2.857  -0.015 -0.7856 -0.3747 -0.5235
 2378SOL     OW 7132   1.250   3.848   1.719 -0.4151  0.5199  0.0217
 2378SOL    HW1 7133   1.309   3.850   1.795 -1.1275 -0.6037  0.6383
 2378SOL    HW2 7134   1.205   3.932   1.722  0.6472  1.1098 -0.0556
 2379SOL     OW 7135   3.652   4.327   3.929 -0.3876 -0.4764  0.3964
 2379SOL    HW1 7136   3.646   4.373   4.013 -2.3652  1.2482 -0.5871
 2379SOL    HW2 7137   3.581   4.262   3.933 -2.0354  1.1674 -0.7445
 2380SOL     OW 7138   4.140   3.395   0.718 -0.5457  0.0635  0.1307
 2380SOL    HW1 7139   4.222   3.430   0.753  0.2418 -1.6446  0.1357
 2380SOL    HW2 7140   4.092   3.365   0.795 -0.3357 -0.6012  0.0107
 2381SOL     OW 7141   0.967   1.057   2.972 -0.1816  0.1892 -0.0722
 2381SOL    HW1 7142   0.913   1.109   2.912  0.3891  2.7109  1.4457
 2381SOL    HW2 7143   0.920   1.062   3.056  0.5253 -0.7671  0.3959
 2382SOL     OW 7144   1.843   3.292   2.361  0.4435  0.6053 -0.2829
 2382SOL    HW1 7145   1.890   3.250   2.433  0.7402 -1.8832 -1.8186
 2382SOL    HW2 7146   1.888   3.376   2.349  2.5290 -0.3476  0.3214
 2383SOL     OW 7147   1.021   2.681   3.227 -0.2826  0.2224 -0.3806
 2383SOL    HW1 7148   0.976   2.640   3.153 -2.4513 -0.5183  1.2612
 2383SOL    HW2 7149   1.068   2.609   3.269  0.4699  0.5333 -0.6681
 2384SOL     OW 7150   4.202   2.087   2.876  0.3734  0.1761 -1.1747
 2384SOL    HW1 7151   4.133   2.104   2.812  0.5358  0.0378 -1.3921
 2384SOL    HW2 7152   4.247   2.170   2.885 -1.5713  1.0755  1.1334
 2385SOL     OW 7153   0.174   1.351   2.269  0.4184  0.3772  0.0311
 2385SOL    HW1 7154   0.199   1.288   2.336  0.3458  0.8068  0.4629
 2385SOL    HW2 7155   0.078   1.353   2.272  0.2726 -1.1820 -1.5431
 2386SOL     OW 7156   3.269   2.340   2.498 -0.3364 -0.2375 -0.4178
 2386SOL    HW1 7157   3.205   2.385   2.444  0.9806  2.9364  0.4678
 2386SOL    HW2 7158   3.340   2.402   2.509  1.8107 -2.6895  0.7106
 2387SOL     OW 7159   3.541   0.954   0.775 -0.3540  0.6974 -1.2091
 2387SOL    HW1 7160   3.448   0.972   0.758 -0.5393 -0.7144 -1.8929
 2387SOL    HW2 7161   3.540   0.868   0.817  0.6341  0.8222 -0.9239
 2388SOL     OW 7162   0.621   4.202   3.750  0.2041  0.2110 -0.2055
 2388SOL    HW1 7163   0.669   4.202   3.667  1.3421 -0.0890  0.4266
 2388SOL    HW2 7164   0.628   4.112   3.781 -0.8487  0.1450 -0.1243
 2389SOL     OW 7165   0.668   4.075   0.177  0.3193  0.1758  0.2766
 2389SOL    HW1 7166   0.665   3.988   0.216  2.6815 -0.4331 -0.7243
 2389SOL    HW2 7167   0.649   4.061   0.085  0.7479  0.7037  0.1002
 2390SOL     OW 7168   2.235   2.159   3.482 -0.0687 -0.3817 -0.0322
 2390SOL    HW1 7169   2.310   2.102   3.497 -1.0021 -1.5333  0.4738
 2390SOL    HW2 7170   2.247   2.231   3.544  0.6242 -0.5487  0.0321
 2391SOL     OW 7171   3.657   1.034   3.941  0.4074  0.2863  0.3454
 2391SOL    HW1 7172   3.633   0.969   4.007  0.1824  0.0133 -0.0022
 2391SOL    HW2 7173   3.733   1.079   3.978  0.2585  0.1627  0.8071
 2392SOL     OW 7174   4.165   1.111   3.035 -0.3190  0.4167 -0.1651
 2392SOL    HW1 7175   4.120   1.176   3.089  0.9913  0.1001  1.3764
 2392SOL    HW2 7176   4.095   1.070   2.985 -1.4529  1.4613  0.4916
 2393SOL     OW 7177   2.848   2.347   4.173  0.1376  0.3795 -0.1089
 2393SOL    HW1 7178   2.756   2.371   4.176 -0.3220 -1.1021 -1.0581
 2393SOL    HW2 7179   2.854   2.267   4.226  0.6355 -0.1994 -1.0185
 2394SOL     OW 7180   3.215   3.439   0.981  0.1924  0.3904  0.1652
 2394SOL    HW1 7181   3.228   3.388   1.061  1.0071  0.5999  0.1784
 2394SOL    HW2 7182   3.256   3.387   0.912 -0.5327  0.1970 -0.1340
 2395SOL     OW 7183   2.842   0.514   0.680  0.2183 -0.3182 -0.3851
 2395SOL    HW1 7184   2.762   0.510   0.733 -0.3268  1.7122 -0.9625
 2395SOL    HW2 7185   2.813   0.493   0.592 -0.3682  3.1420 -1.1641
 2396SOL     OW 7186   2.076   3.412   1.094  0.0967 -0.6521 -0.1813
 2396SOL    HW1 7187   2.068   3.433   1.187  2.1750 -1.0795  0.1486
 2396SOL    HW2 7188   2.111   3.492   1.054 -1.6580 -0.1507 -0.8098
 2397SOL     OW 7189   3.316   0.184   2.517  0.6761  0.5905 -0.4193
 2397SOL    HW1 7190   3.237   0.238   2.525 -0.5752 -1.3957  2.0548
 2397SOL    HW2 7191   3.306   0.140   2.433 -0.5380  0.8548 -0.4423
 2398SOL     OW 7192   2.188   2.232   1.325  0.1853  0.0594  0.2125
 2398SOL    HW1 7193   2.235   2.257   1.404 -1.9001  0.5105  1.4051
 2398SOL    HW2 7194   2.199   2.137   1.318  1.0683  0.1312  0.5604
 2399SOL     OW 7195   0.511   3.801   1.348 -0.3330  0.3425 -0.2947
 2399SOL    HW1 7196   0.466   3.810   1.432  0.0457  3.5664 -0.3341
 2399SOL    HW2 7197   0.601   3.829   1.365  0.1857 -0.5149 -1.4559
 2400SOL     OW 7198   4.493   4.054   2.950  0.1233 -0.2245 -0.3393
 2400SOL    HW1 7199   4.530   3.982   2.899 -0.2712 -1.4778  1.0421
 2400SOL    HW2 7200   4.453   4.011   3.026  1.2486  1.5586  1.3747
 2401SOL     OW 7201   2.591   0.501   2.655 -0.3797 -0.2985 -0.2633
 2401SOL    HW1 7202   2.659   0.493   2.722 -1.3688 -1.4527  0.6275
 2401SOL    HW2 7203   2.589   0.414   2.614 -0.8391 -0.0515 -0.7624
 2402SOL     OW 7204   3.177   1.960   2.476 -0.3633  0.3920  0.0353
 2402SOL    HW1 7205   3.088   1.992   2.461 -0.2101 -0.1427 -2.6580
 2402SOL    HW2 7206   3.216   2.021   2.538 -1.6231  2.5057 -1.1683
 2403SOL     OW 7207   2.951   4.297   3.101  0.1675 -0.3349  0.5777
 2403SOL    HW1 7208   3.025   4.281   3.160  0.1718 -1.0367  0.3851
 2403SOL    HW2 7209   2.876   4.258   3.145  0.4641 -2.4640 -0.6432
 2404SOL     OW 7210   2.291   2.900   0.347 -0.6087 -0.0804 -0.3437
 2404SOL    HW1 7211   2.333   2.901   0.432  0.3781  0.4411 -0.8143
 2404SOL    HW2 7212   2.265   2.809   0.333  0.2367 -0.3853  0.0341
 2405SOL     OW 7213   2.272   3.107   0.034 -0.2460 -0.2352 -0.4700
 2405SOL    HW1 7214   2.282   3.193   0.075 -1.7291 -0.6630  0.8731
 2405SOL    HW2 7215   2.355   3.063   0.050  0.6679  1.0245 -1.4684
 2406SOL     OW 7216   4.301   2.362   2.788 -0.2891 -0.1856 -0.3730
 2406SOL    HW1 7217   4.383   2.366   2.739  0.4379  0.1976  0.8322
 2406SOL    HW2 7218   4.235   2.398   2.728  0.1078 -1.8981 -1.9236
 2407SOL     OW 7219   1.004   4.458   4.095 -0.3779 -0.2076  0.2324
 2407SOL    HW1 7220   0.924   4.483   4.049 -0.9924 -0.1288  1.3244
 2407SOL    HW2 7221   0.977   4.387   4.154  0.1966  0.3005  1.1246
 2408SOL     OW 7222   3.726   2.426   1.890 -0.1566 -0.5033  0.0402
 2408SOL    HW1 7223   3.762   2.366   1.825 -0.3200 -1.9072  1.1933
 2408SOL    HW2 7224   3.767   2.510   1.870 -0.0512 -0.9326 -1.7336
 2409SOL     OW 7225   3.971   0.357   1.499 -0.1370 -0.1214  0.4096
 2409SOL    HW1 7226   3.952   0.286   1.560 -0.5063 -1.5206 -1.2721
 2409SOL    HW2 7227   4.058   0.337   1.464 -0.8811 -0.6320 -1.2209
 2410SOL     OW 7228   2.488   1.065   1.692 -0.0083 -0.6293 -0.5140
 2410SOL    HW1 7229   2.573   1.107   1.703  0.6186 -2.0357  0.3009
 2410SOL    HW2 7230   2.487   1.038   1.600  0.7642 -1.2778 -0.3442
 2411SOL     OW 7231   3.066   3.749   4.191  0.0683 -0.4937 -0.8873
 2411SOL    HW1 7232   3.161   3.763   4.198  0.2309 -1.3572 -1.2430
 2411SOL    HW2 7233   3.055   3.655   4.203 -0.7619 -0.3882 -0.7742
 2412SOL     OW 7234   1.142   3.708   1.182 -0.6228  0.4144 -0.2599
 2412SOL    HW1 7235   1.171   3.710   1.273 -0.5115  2.8099 -0.2748
 2412SOL    HW2 7236   1.106   3.620   1.169  0.2996 -0.3095  1.7738
 2413SOL     OW 7237   3.228   3.562   3.830 -0.8308 -0.4085 -0.1760
 2413SOL    HW1 7238   3.216   3.651   3.861  1.5543 -0.5064  1.2674
 2413SOL    HW2 7239   3.263   3.571   3.741  0.4765  0.1619  0.3771
 2414SOL     OW 7240   3.621   2.400   1.289 -0.0543 -0.6752 -0.5017
 2414SOL    HW1 7241   3.608   2.308   1.267 -1.2788 -0.6837  0.1827
 2414SOL    HW2 7242   3.580   2.448   1.217 -0.1212 -0.6648 -0.4560
 2415SOL     OW 7243   2.306   0.642   0.798  0.0215 -0.0427  0.1189
 2415SOL    HW1 7244   2.316   0.561   0.848  0.3428  1.3021  2.3326
 2415SOL    HW2 7245   2.215   0.668   0.814  0.5816  1.2370  1.4083
 2416SOL     OW 7246   1.638   3.787   2.288  0.1656  0.3487  0.2332
 2416SOL    HW1 7247   1.619   3.693   2.286  0.8080  0.2224 -0.7654
 2416SOL    HW2 7248   1.608   3.815   2.374 -2.4196 -0.2591 -0.3755
 2417SOL     OW 7249   2.521   2.682   0.397 -0.0177  0.5551  0.2474
 2417SOL    HW1 7250   2.430   2.657   0.384 -0.7874  2.4142  1.6609
 2417SOL    HW2 7251   2.552   2.706   0.309 -0.9470  0.1687 -0.1964
 2418SOL     OW 7252   0.225   1.560   2.854 -0.4638 -0.0080 -0.2066
 2418SOL    HW1 7253   0.288   1.574   2.924 -0.9078 -0.2443  0.2452
 2418SOL    HW2 7254   0.154   1.622   2.873 -0.8628 -0.4951 -0.1110
 2419SOL     OW 7255   3.706   4.479   1.870 -0.5398 -0.2134 -0.2332
 2419SOL    HW1 7256   3.623   4.528   1.860 -0.9821 -1.3586 -2.9823
 2419SOL    HW2 7257   3.682   4.388   1.855  1.0873 -0.6850 -0.1254
 2420SOL     OW 7258   4.106   0.662   1.503  0.3369 -0.0135 -0.2498
 2420SOL    HW1 7259   4.099   0.626   1.415  0.9792  0.5631 -0.5433
 2420SOL    HW2 7260   4.023   0.639   1.545 -1.1009  1.9394 -1.8308
 2421SOL     OW 7261   0.241   3.116  -0.008  0.3569 -0.4325 -0.1773
 2421SOL    HW1 7262   0.161   3.149   0.033  1.1582  0.2630  0.8871
 2421SOL    HW2 7263   0.283   3.065   0.061  1.2674 -0.0350 -0.4292
 2422SOL     OW 7264   0.539   2.472   0.322 -0.5020 -0.3665  0.5379
 2422SOL    HW1 7265   0.487   2.537   0.275  1.5857  1.2108  0.3037
 2422SOL    HW2 7266   0.520   2.489   0.414 -0.6081  0.0177  0.4489
 2423SOL     OW 7267   0.589   0.892   3.010  0.1775 -0.5264  0.3532
 2423SOL    HW1 7268   0.517   0.843   3.050  0.6101 -1.4691  0.0174
 2423SOL    HW2 7269   0.547   0.960   2.958 -0.4578 -0.8288  0.4723
 2424SOL     OW 7270   1.669   3.797   1.557  0.3878 -0.2497 -0.2466
 2424SOL    HW1 7271   1.648   3.750   1.477  0.1887  1.7551 -1.4311
 2424SOL    HW2 7272   1.628   3.745   1.626 -1.4752 -0.8122 -1.6773
 2425SOL     OW 7273   1.548   0.984   1.582  0.2937  0.1466 -0.1169
 2425SOL    HW1 7274   1.638   0.965   1.556 -0.2040 -1.9416 -0.5150
 2425SOL    HW2 7275   1.494   0.942   1.514 -0.9891  1.4628  0.0395
 2426SOL     OW 7276   0.592   0.836   1.287 -0.0797 -0.7871  0.3747
 2426SOL    HW1 7277   0.500   0.826   1.263 -0.5415 -0.0860  1.7586
 2426SOL    HW2 7278   0.601   0.786   1.368  0.1149  1.1668  1.6219
 2427SOL     OW 7279   2.682   4.521   2.554  0.1444  0.4290 -0.7142
 2427SOL    HW1 7280   2.703   4.477   2.471  2.9791 -0.4017  0.3292
 2427SOL    HW2 7281   2.692   4.453   2.620  2.0980  1.9767  0.6985
 2428SOL     OW 7282   3.332   3.748   0.684  0.1099 -0.4351 -0.3399
 2428SOL    HW1 7283   3.352   3.730   0.592 -1.5785 -0.7517 -0.6754
 2428SOL    HW2 7284   3.285   3.831   0.682  2.4519  1.0295  0.5749
 2429SOL     OW 7285   1.502   0.128   0.743 -0.1420  0.5880 -0.2208
 2429SOL    HW1 7286   1.592   0.131   0.710  1.0823  1.8383  2.8293
 2429SOL    HW2 7287   1.469   0.043   0.715  2.3480 -0.3543 -0.6071
 2430SOL     OW 7288   2.345   3.366   2.215  0.2039  0.5896  0.2741
 2430SOL    HW1 7289   2.324   3.341   2.305  0.5978  1.8015  0.7119
 2430SOL    HW2 7290   2.424   3.419   2.223  1.0052 -0.3647 -0.9302
 2431SOL     OW 7291   4.388   4.161   1.809  0.5380  0.2572  0.1123
 2431SOL    HW1 7292   4.456   4.229   1.806 -0.8847  1.7187 -1.9289
 2431SOL    HW2 7293   4.335   4.178   1.732 -1.2152 -1.8443  0.7776
 2432SOL     OW 7294   2.238   3.742   0.130 -0.0457 -0.5605 -0.6193
 2432SOL    HW1 7295   2.219   3.731   0.224  2.1646  0.9561  0.0762
 2432SOL    HW2 7296   2.244   3.652   0.097 -2.3032 -1.1425  0.3066
 2433SOL     OW 7297   2.863   0.125   1.522 -0.4554  0.0070  0.2212
 2433SOL    HW1 7298   2.836   0.204   1.474 -0.0402 -0.6788 -1.1963
 2433SOL    HW2 7299   2.927   0.083   1.464  0.4163 -0.6302  1.5994
 2434SOL     OW 7300   3.265   3.012   3.176 -0.3551 -0.4219  0.4652
 2434SOL    HW1 7301   3.330   3.045   3.113 -0.2252 -2.3043 -0.4771
 2434SOL    HW2 7302   3.222   3.090   3.210  0.7863  0.7487 -0.6658
 2435SOL     OW 7303   3.220   4.346   3.972 -0.0693  0.5893 -0.1559
 2435SOL    HW1 7304   3.278   4.420   3.989  2.6464 -1.6002  0.8212
 2435SOL    HW2 7305   3.190   4.319   4.059 -1.3522  0.6976 -0.5350
 2436SOL     OW 7306   2.624   2.271   0.261  0.4697 -0.2269 -0.0277
 2436SOL    HW1 7307   2.665   2.320   0.332  0.4031  0.3859 -0.3953
 2436SOL    HW2 7308   2.665   2.306   0.182 -3.5523  3.5555 -0.8356
 2437SOL     OW 7309   3.374   0.219   1.231  0.1082  0.0322  0.8123
 2437SOL    HW1 7310   3.386   0.309   1.261 -0.3478  0.1712  0.5963
 2437SOL    HW2 7311   3.415   0.165   1.298  0.9448  0.4265  0.6278
 2438SOL     OW 7312   1.054  -0.012   0.909 -0.5968 -0.9366  0.2523
 2438SOL    HW1 7313   0.989   0.012   0.975  0.8842  1.7693  0.8693
 2438SOL    HW2 7314   1.102   0.069   0.891  0.1260 -1.9221 -3.0149
 2439SOL     OW 7315   2.978   4.350   2.019  0.0315 -0.2332 -0.0344
 2439SOL    HW1 7316   3.073   4.353   2.017  0.0256 -0.2540 -1.3283
 2439SOL    HW2 7317   2.957   4.310   2.103  1.1248  0.6517  0.6843
 2440SOL     OW 7318   2.541   1.307   1.273 -0.4769  0.2461  0.2102
 2440SOL    HW1 7319   2.549   1.225   1.224  0.4102 -0.6097  1.7114
 2440SOL    HW2 7320   2.628   1.322   1.309 -0.6326  1.8739 -0.0329
 2441SOL     OW 7321   3.942   2.688   2.172  0.1167  0.1077  0.5611
 2441SOL    HW1 7322   3.894   2.725   2.246  1.5811  2.2806  0.4958
 2441SOL    HW2 7323   4.034   2.696   2.196  0.6830  1.6283 -1.7756
 2442SOL     OW 7324   2.194   2.692   3.600  0.5257 -0.4130  0.2043
 2442SOL    HW1 7325   2.152   2.766   3.556 -2.2915  0.6961  4.2078
 2442SOL    HW2 7326   2.279   2.726   3.627  0.0631  0.7349  0.3029
 2443SOL     OW 7327   2.663   1.427   1.783  0.2027 -0.6751  0.2144
 2443SOL    HW1 7328   2.684   1.509   1.828 -0.1257 -0.3169 -0.2755
 2443SOL    HW2 7329   2.571   1.413   1.801  0.4717 -1.4353  1.0705
 2444SOL     OW 7330   1.130   3.129   3.188 -0.0620  0.3284  0.2522
 2444SOL    HW1 7331   1.223   3.110   3.201 -0.2800 -0.1405  1.3114
 2444SOL    HW2 7332   1.116   3.213   3.233  0.2819  1.5620 -1.8341
 2445SOL     OW 7333   4.316   3.166   3.191  0.7649 -0.0513 -0.5233
 2445SOL    HW1 7334   4.242   3.121   3.234 -0.7443  2.0281 -0.7847
 2445SOL    HW2 7335   4.369   3.095   3.154  0.2999 -1.7633  1.8317
 2446SOL     OW 7336   4.234   3.036   4.026  0.8545  0.1146  0.5153
 2446SOL    HW1 7337   4.205   2.990   3.947 -0.0597  1.4293  0.0440
 2446SOL    HW2 7338   4.312   3.084   3.999  0.6295  0.4451  0.4523
 2447SOL     OW 7339   2.342   2.872   2.820 -0.4560 -0.2373 -0.9377
 2447SOL    HW1 7340   2.290   2.856   2.740  0.3813  0.0573 -1.5542
 2447SOL    HW2 7341   2.433   2.865   2.791 -0.1279 -1.4179  0.2701
 2448SOL     OW 7342   1.237   4.447   0.434  0.2586  0.4857 -1.2211
 2448SOL    HW1 7343   1.175   4.516   0.461  0.8397  0.2935  0.7267
 2448SOL    HW2 7344   1.296   4.437   0.508  0.9582 -1.2661 -1.9578
 2449SOL     OW 7345   0.316   0.759   1.250 -0.0589 -0.0715  0.3739
 2449SOL    HW1 7346   0.273   0.833   1.291  2.5470  2.2672 -0.7682
 2449SOL    HW2 7347   0.298   0.768   1.157  1.8063  0.3252 -0.0024
 2450SOL     OW 7348   4.126   3.624   3.989 -0.4695 -0.0050 -0.4846
 2450SOL    HW1 7349   4.194   3.625   4.057 -1.0149  0.8915  0.0878
 2450SOL    HW2 7350   4.152   3.693   3.928  0.5728 -1.4981 -1.8053
 2451SOL     OW 7351   2.971   1.276   0.373  0.0905 -0.0309 -0.0582
 2451SOL    HW1 7352   2.957   1.366   0.343 -3.4364  0.0815  1.3868
 2451SOL    HW2 7353   2.897   1.227   0.336  1.1781 -2.0465  0.3251
 2452SOL     OW 7354   4.381   3.855   1.663 -0.6444 -0.4348 -0.1670
 2452SOL    HW1 7355   4.338   3.831   1.745 -0.7602 -1.8645 -0.6298
 2452SOL    HW2 7356   4.401   3.948   1.674 -2.7110 -0.0222  0.5752
 2453SOL     OW 7357   1.129   0.242   0.831 -0.7200 -0.1582  0.3411
 2453SOL    HW1 7358   1.045   0.283   0.815 -0.2533 -0.0443 -2.1546
 2453SOL    HW2 7359   1.190   0.315   0.844 -0.4514 -0.1246 -1.0231
 2454SOL     OW 7360   2.983   2.569   0.482 -0.1808 -0.3742  0.5911
 2454SOL    HW1 7361   3.037   2.504   0.437  0.8329 -0.6099  2.0672
 2454SOL    HW2 7362   3.036   2.648   0.483 -0.7431  0.0165  0.2301
 2455SOL     OW 7363   1.925   2.368   0.749  0.1317 -0.0525  0.1214
 2455SOL    HW1 7364   1.895   2.338   0.834  0.7533  1.6570  0.9898
 2455SOL    HW2 7365   2.002   2.315   0.729  0.7438  0.3885  1.2428
 2456SOL     OW 7366   0.358   0.379   2.076  0.1818 -0.7071 -0.5766
 2456SOL    HW1 7367   0.363   0.459   2.127  1.1262 -1.4121  0.4863
 2456SOL    HW2 7368   0.285   0.331   2.114 -1.5255  0.3502 -2.3347
 2457SOL     OW 7369   3.458   1.175   1.158 -0.0743 -0.3900  0.5350
 2457SOL    HW1 7370   3.470   1.080   1.169 -0.8644 -0.5378  0.1704
 2457SOL    HW2 7371   3.379   1.183   1.105 -0.9052  0.5026  1.8586
 2458SOL     OW 7372   3.052   4.177   1.671  0.6466 -0.8852  0.4806
 2458SOL    HW1 7373   2.969   4.129   1.681  0.8960 -1.1919  1.1295
 2458SOL    HW2 7374   3.062   4.189   1.577 -0.5237 -0.1714  0.4245
 2459SOL     OW 7375   1.150   3.055   1.103 -0.0673  0.3602  0.3527
 2459SOL    HW1 7376   1.227   3.047   1.158 -0.6092 -0.2039  1.0460
 2459SOL    HW2 7377   1.184   3.079   1.016  0.8058  1.0639  0.8775
 2460SOL     OW 7378   1.956   4.421   3.557 -0.0238 -0.8692  0.0391
 2460SOL    HW1 7379   2.008   4.501   3.554  0.2952 -1.0980 -0.9059
 2460SOL    HW2 7380   1.996   4.368   3.627 -0.8088  0.1588  1.3079
 2461SOL     OW 7381   1.253   3.357   0.666 -0.6215  0.6353  0.0481
 2461SOL    HW1 7382   1.217   3.440   0.635 -1.8118  0.0740 -0.1274
 2461SOL    HW2 7383   1.234   3.295   0.595  0.1526  0.1894  0.2254
 2462SOL     OW 7384   3.072   1.196   3.110 -0.2285 -0.5973 -0.4003
 2462SOL    HW1 7385   3.073   1.101   3.093  0.4878 -0.6769  0.0254
 2462SOL    HW2 7386   2.986   1.213   3.149  0.1797 -1.3425  0.9105
 2463SOL     OW 7387   3.806   0.605   1.572  0.6196  0.6332 -0.1337
 2463SOL    HW1 7388   3.734   0.611   1.635 -1.7211  0.5783 -2.6105
 2463SOL    HW2 7389   3.831   0.513   1.573 -2.3044 -0.3443 -2.0941
 2464SOL     OW 7390   1.665   2.218   1.251 -0.2375  0.1066 -0.6038
 2464SOL    HW1 7391   1.635   2.304   1.220 -2.1137 -0.1064  0.4826
 2464SOL    HW2 7392   1.761   2.225   1.252 -0.3533  2.5990  0.5420
 2465SOL     OW 7393   1.324   1.341   1.187  0.4847  0.3715  0.1454
 2465SOL    HW1 7394   1.286   1.258   1.215  1.2040  0.1097  0.3482
 2465SOL    HW2 7395   1.418   1.325   1.181  0.5840  1.0454 -0.2541
 2466SOL     OW 7396   0.577   1.160   4.236  0.2627 -0.2254 -0.2145
 2466SOL    HW1 7397   0.647   1.224   4.245  0.0525 -0.0574  0.2200
 2466SOL    HW2 7398   0.603   1.106   4.161 -0.7102  1.8398 -2.1627
 2467SOL     OW 7399   2.907   3.149   1.493 -0.1532  0.0050  0.1116
 2467SOL    HW1 7400   2.817   3.152   1.524 -1.0746 -0.6590 -2.2763
 2467SOL    HW2 7401   2.909   3.211   1.419  1.5761  0.6267  0.6257
 2468SOL     OW 7402   3.982   0.304   1.140  0.3610  0.5651  0.2739
 2468SOL    HW1 7403   3.987   0.298   1.044  0.8167  1.5067  0.2289
 2468SOL    HW2 7404   4.042   0.237   1.171 -0.3144 -0.2311 -0.0799
 2469SOL     OW 7405   0.004   2.552   4.270  0.6125  0.6988  0.4718
 2469SOL    HW1 7406   0.044   2.628   4.229 -0.6894  1.8499  1.2578
 2469SOL    HW2 7407   0.076   2.508   4.315  1.3342  1.6345  0.2612
 2470SOL     OW 7408   1.383   3.803   4.191  0.5535 -0.0692  0.5281
 2470SOL    HW1 7409   1.318   3.767   4.131 -0.5033  0.2468  1.4745
 2470SOL    HW2 7410   1.467   3.774   4.154 -0.1436 -1.1959 -0.2374
 2471SOL     OW 7411   2.319   1.907   2.180 -0.1040  0.4031 -0.1640
 2471SOL    HW1 7412   2.396   1.914   2.237 -0.0658  1.3297 -0.3152
 2471SOL    HW2 7413   2.354   1.920   2.092 -0.3799  0.4273 -0.2695
 2472SOL     OW 7414   0.533   1.062   1.598 -0.1928  0.4811 -0.1593
 2472SOL    HW1 7415   0.497   1.151   1.593  1.1406  1.0675  0.1938
 2472SOL    HW2 7416   0.625   1.072   1.572 -0.5149 -1.1469 -2.1622
 2473SOL     OW 7417   3.006   1.528   0.272  0.2120  0.2424  0.5009
 2473SOL    HW1 7418   2.990   1.526   0.178  0.8652 -0.8427  0.3952
 2473SOL    HW2 7419   2.942   1.591   0.306 -1.4265 -0.8417 -0.4093
 2474SOL     OW 7420   1.291   0.104   0.062 -0.7048  0.1658 -0.4720
 2474SOL    HW1 7421   1.337   0.051  -0.003  2.1690  0.9431  0.8060
 2474SOL    HW2 7422   1.277   0.189   0.019 -1.7543 -0.3124 -1.1303
 2475SOL     OW 7423   0.368   4.416   2.995 -0.5952 -0.9844  0.7707
 2475SOL    HW1 7424   0.336   4.330   3.024 -0.0129 -0.5635  2.8405
 2475SOL    HW2 7425   0.377   4.466   3.076 -0.2993  0.8283 -0.3384
 2476SOL     OW 7426   3.677   2.653   1.420  0.2476 -0.0027  0.2758
 2476SOL    HW1 7427   3.672   2.565   1.384  0.9848 -0.1381  0.4932
 2476SOL    HW2 7428   3.612   2.703   1.371  0.2055 -0.5367 -0.2166
 2477SOL     OW 7429   2.791   3.519   2.127 -0.2702  0.8145  0.6178
 2477SOL    HW1 7430   2.761   3.559   2.045 -0.7421  0.9276  0.8456
 2477SOL    HW2 7431   2.886   3.535   2.127 -0.0084 -0.4589 -0.6078
 2478SOL     OW 7432   2.237   3.924   3.722 -0.5707  0.6671 -0.3649
 2478SOL    HW1 7433   2.275   3.903   3.807  1.0345 -1.7016 -1.5790
 2478SOL    HW2 7434   2.296   3.989   3.684 -1.0145  1.3464  0.0692
 2479SOL     OW 7435   1.721   3.125   1.258  0.1168  0.3895  0.0193
 2479SOL    HW1 7436   1.754   3.074   1.184  2.1290 -0.5569  1.4602
 2479SOL    HW2 7437   1.694   3.059   1.322  1.8273  1.0611  1.5267
 2480SOL     OW 7438   2.414   1.909   1.872  0.0716  0.0565  0.2758
 2480SOL    HW1 7439   2.327   1.875   1.847 -0.4001  0.8392  0.8048
 2480SOL    HW2 7440   2.449   1.946   1.790  0.2590 -0.9896 -0.1251
 2481SOL     OW 7441   0.705   0.832   3.877  0.5405 -0.0786 -0.5811
 2481SOL    HW1 7442   0.639   0.763   3.879 -0.0826  0.3169 -3.3496
 2481SOL    HW2 7443   0.788   0.785   3.871  0.1944 -0.6235 -1.3926
 2482SOL     OW 7444   1.639   2.941   1.774 -0.2172 -0.1137 -0.0344
 2482SOL    HW1 7445   1.707   2.912   1.713  2.9990  2.9197  1.6910
 2482SOL    HW2 7446   1.628   2.867   1.834  2.1066 -0.5461 -0.0313
 2483SOL     OW 7447   1.808   4.116   0.320 -0.7449  0.0869  0.1428
 2483SOL    HW1 7448   1.763   4.139   0.238 -0.8632 -0.7859 -0.0419
 2483SOL    HW2 7449   1.853   4.034   0.302 -1.2100 -0.4083  1.1016
 2484SOL     OW 7450   1.150   4.104   1.036  0.4174  0.0472  0.4107
 2484SOL    HW1 7451   1.062   4.138   1.055 -0.4990 -0.9369 -1.7443
 2484SOL    HW2 7452   1.189   4.168   0.978  0.2121 -0.6265 -0.4880
 2485SOL     OW 7453  -0.029   1.723   0.411  0.3676 -0.4424  0.4214
 2485SOL    HW1 7454   0.063   1.732   0.436  0.5401  1.4043 -0.7267
 2485SOL    HW2 7455  -0.032   1.746   0.319 -1.4566  1.1165  0.8069
 2486SOL     OW 7456   0.225   1.975   2.966 -0.0539 -0.5822  0.3626
 2486SOL    HW1 7457   0.265   1.922   3.034 -0.6596 -0.0434  1.1520
 2486SOL    HW2 7458   0.281   1.962   2.889  0.7429 -1.0367  1.0135
 2487SOL     OW 7459   1.532   1.111   0.508 -0.4339 -0.5031 -0.2157
 2487SOL    HW1 7460   1.536   1.091   0.601 -0.5059 -0.0700 -0.1157
 2487SOL    HW2 7461   1.570   1.034   0.464 -1.1388 -1.0591  0.1253
 2488SOL     OW 7462   2.595   3.600   3.755 -0.0529  0.7588  0.1224
 2488SOL    HW1 7463   2.662   3.544   3.793 -0.5087 -0.1345 -0.3649
 2488SOL    HW2 7464   2.535   3.540   3.711 -0.8708  1.5789  0.0751
 2489SOL     OW 7465   4.392   1.627   2.145 -0.0363 -0.4229 -0.0070
 2489SOL    HW1 7466   4.310   1.663   2.111 -0.2806 -2.1766 -1.4265
 2489SOL    HW2 7467   4.365   1.567   2.215  0.0347 -0.8531 -0.3430
 2490SOL     OW 7468   0.743   2.146   2.620  0.8613 -0.2940  0.0510
 2490SOL    HW1 7469   0.652   2.126   2.598 -1.0351  3.6400  3.0955
 2490SOL    HW2 7470   0.765   2.220   2.564  1.7776 -0.4519  0.1861
 2491SOL     OW 7471   2.944   2.200   0.897  0.8266  0.0920  0.2167
 2491SOL    HW1 7472   2.950   2.282   0.848  1.2072 -1.3473 -2.2634
 2491SOL    HW2 7473   2.930   2.132   0.831 -0.6104 -1.7628  2.2754
 2492SOL     OW 7474   3.122   1.796   1.238  0.0918 -0.4937  0.2306
 2492SOL    HW1 7475   3.178   1.719   1.236  0.5962 -0.1177 -1.5340
 2492SOL    HW2 7476   3.158   1.850   1.308  3.2007  0.5976 -2.0274
 2493SOL     OW 7477   2.462   4.328   1.819 -0.2938 -0.1397 -0.0163
 2493SOL    HW1 7478   2.389   4.390   1.818 -2.7984 -2.8958 -0.1214
 2493SOL    HW2 7479   2.514   4.351   1.742 -0.3704  2.5280  0.6205
 2494SOL     OW 7480   3.586   2.657   2.396 -0.3023  0.2072  0.2446
 2494SOL    HW1 7481   3.510   2.666   2.338  1.3257  1.7098 -1.8067
 2494SOL    HW2 7482   3.661   2.651   2.336  1.3033 -0.0901  2.1969
 2495SOL     OW 7483   4.295   4.315   0.443 -0.7106 -0.1828  0.3792
 2495SOL    HW1 7484   4.380   4.325   0.399 -0.3604  0.9316  1.2385
 2495SOL    HW2 7485   4.232   4.353   0.382 -0.5264 -0.6133 -0.0784
 2496SOL     OW 7486   2.891   2.929   3.285  0.4642  0.8571 -0.0324
 2496SOL    HW1 7487   2.966   2.969   3.329  1.1617 -1.9943  1.5985
 2496SOL    HW2 7488   2.815   2.965   3.332  1.0476  0.4120  1.2877
 2497SOL     OW 7489   0.124   3.951   2.722  0.1221  0.1889 -0.0061
 2497SOL    HW1 7490   0.180   4.028   2.739  1.3704 -0.4897 -0.8905
 2497SOL    HW2 7491   0.044   3.988   2.686  1.5246  1.0542 -2.5293
 2498SOL     OW 7492   2.377   1.218   3.652 -0.4728  0.4413  0.4817
 2498SOL    HW1 7493   2.316   1.159   3.697 -0.2335  1.5327  2.3641
 2498SOL    HW2 7494   2.322   1.289   3.620 -0.2573  1.4361  2.1974
 2499SOL     OW 7495   4.311   1.946   0.517 -0.1618 -1.0468 -0.0322
 2499SOL    HW1 7496   4.234   1.930   0.464  0.7431  0.1820 -1.8184
 2499SOL    HW2 7497   4.359   1.863   0.518 -0.5625 -1.2844 -0.5220
 2500SOL     OW 7498   3.054   4.174   1.398 -0.4023 -0.8342  0.5274
 2500SOL    HW1 7499   2.983   4.225   1.358  1.0401  0.8697 -0.0156
 2500SOL    HW2 7500   3.118   4.162   1.328  0.3632 -1.3404  1.2872
 2501SOL     OW 7501   1.868   3.220   1.808 -0.2563 -0.1918 -0.1467
 2501SOL    HW1 7502   1.958   3.192   1.824 -0.3023  0.7808  2.2368
 2501SOL    HW2 7503   1.877   3.309   1.774 -0.2998 -0.6878 -1.5041
 2502SOL     OW 7504   3.373   3.747   2.913  0.4336 -0.2042  0.3094
 2502SOL    HW1 7505   3.295   3.729   2.860 -0.2259 -1.3831  1.6210
 2502SOL    HW2 7506   3.397   3.837   2.890 -1.3744  0.2353 -0.0636
 2503SOL     OW 7507   2.668   0.539   3.610  0.0273  0.0742 -0.2193
 2503SOL    HW1 7508   2.722   0.466   3.579  1.8574  1.0528  0.5477
 2503SOL    HW2 7509   2.655   0.520   3.704  1.4228  1.2305  0.2375
 2504SOL     OW 7510   3.007   0.404   4.475 -0.2693  0.5242  0.2522
 2504SOL    HW1 7511   3.052   0.487   4.487  0.2952  0.2135  0.3040
 2504SOL    HW2 7512   2.920   0.428   4.442 -0.8261  1.2534  2.0859
 2505SOL     OW 7513   3.615   0.535   0.378  0.9961  0.4040 -0.0406
 2505SOL    HW1 7514   3.617   0.584   0.460 -0.1384  0.9116 -0.3021
 2505SOL    HW2 7515   3.569   0.454   0.399  1.6847  0.0302  0.0714
 2506SOL     OW 7516   0.103   1.417   3.477 -0.4115  0.2110  0.3988
 2506SOL    HW1 7517   0.051   1.460   3.546 -1.1132  2.3475 -1.3294
 2506SOL    HW2 7518   0.042   1.356   3.436 -0.2871 -0.3327  1.0059
 2507SOL     OW 7519   2.293   1.708   1.336 -0.1791 -0.1771  0.1481
 2507SOL    HW1 7520   2.322   1.723   1.426 -0.3110 -2.7497  0.7047
 2507SOL    HW2 7521   2.326   1.621   1.315  0.0750  0.4558 -2.4356
 2508SOL     OW 7522   1.447   1.254   3.792  0.1487 -0.5557 -0.4566
 2508SOL    HW1 7523   1.496   1.255   3.710 -1.2913 -3.9571 -1.5407
 2508SOL    HW2 7524   1.507   1.217   3.856 -0.1446 -2.5383 -1.2405
 2509SOL     OW 7525   3.342   3.318   0.765  0.6559  0.1399  0.3295
 2509SOL    HW1 7526   3.388   3.402   0.770 -0.0077  0.5111  0.4818
 2509SOL    HW2 7527   3.309   3.314   0.676  1.9718 -0.6818 -0.1431
 2510SOL     OW 7528   1.173   3.439   4.083 -0.5274 -0.0516 -0.1363
 2510SOL    HW1 7529   1.186   3.422   3.990 -0.0216 -0.2958 -0.0280
 2510SOL    HW2 7530   1.212   3.526   4.097  0.8174 -0.6705  0.1364
 2511SOL     OW 7531   4.319   0.647   0.752 -0.1915 -0.8982  0.3426
 2511SOL    HW1 7532   4.387   0.636   0.819  0.2610 -1.3565 -0.1794
 2511SOL    HW2 7533   4.368   0.655   0.670 -0.7362 -0.3358  0.0587
 2512SOL     OW 7534   1.423   3.397   1.988 -0.3164 -0.6461 -0.1104
 2512SOL    HW1 7535   1.335   3.381   1.953  0.4397 -1.1766 -1.8238
 2512SOL    HW2 7536   1.476   3.325   1.956  1.0576  0.3703 -0.2236
 2513SOL     OW 7537   3.277   2.607   0.225  0.2459  0.3291 -0.3908
 2513SOL    HW1 7538   3.189   2.573   0.210 -0.3030  1.7544 -0.5841
 2513SOL    HW2 7539   3.298   2.654   0.144  1.8058 -1.2180 -0.9368
 2514SOL     OW 7540   4.354   4.127   2.272 -0.1416  0.4387  0.4246
 2514SOL    HW1 7541   4.307   4.065   2.328  1.4387 -1.3319 -0.0731
 2514SOL    HW2 7542   4.418   4.169   2.330 -0.7161  1.0685  0.6091
 2515SOL     OW 7543   1.859   0.328   2.997  0.1981 -0.2733 -0.2462
 2515SOL    HW1 7544   1.948   0.313   2.966 -0.4833 -0.9097 -2.0545
 2515SOL    HW2 7545   1.810   0.355   2.918 -1.5938 -1.6855  0.3078
 2516SOL     OW 7546   0.779   4.318   1.864 -0.2428 -0.4415 -0.2991
 2516SOL    HW1 7547   0.796   4.225   1.882  1.1573  0.2199  2.4994
 2516SOL    HW2 7548   0.698   4.337   1.911  0.3226  0.0624  0.5015
 2517SOL     OW 7549   2.844   4.160   3.897 -0.2056 -0.6086 -0.3597
 2517SOL    HW1 7550   2.812   4.097   3.962  1.7063 -1.6400 -0.3551
 2517SOL    HW2 7551   2.939   4.145   3.894 -0.1947 -0.3579 -3.1457
 2518SOL     OW 7552   0.803   1.542   3.690 -0.3337 -0.2497 -0.1141
 2518SOL    HW1 7553   0.881   1.517   3.740 -0.6615 -0.3992  0.3326
 2518SOL    HW2 7554   0.737   1.559   3.757 -0.3445  1.0701 -0.4385
 2519SOL     OW 7555   0.477   2.136   1.663 -0.0531  0.5830  0.2129
 2519SOL    HW1 7556   0.399   2.192   1.660  1.4469  2.7850 -0.8351
 2519SOL    HW2 7557   0.522   2.163   1.743  1.1478  1.6614 -0.7657
 2520SOL     OW 7558   2.635   4.315   2.736  0.1146 -0.0558  0.7196
 2520SOL    HW1 7559   2.562   4.304   2.675  0.2559  1.8824  0.1341
 2520SOL    HW2 7560   2.600   4.372   2.805  1.4176  2.1462 -0.3390
 2521SOL     OW 7561   0.311   3.110   0.978  0.6088 -0.0847 -0.2531
 2521SOL    HW1 7562   0.265   3.193   0.991  0.4967 -0.0058 -1.1427
 2521SOL    HW2 7563   0.385   3.115   1.038  0.1525  0.3130  0.2917
 2522SOL     OW 7564   0.824   0.900   1.894  0.1888  0.2149 -0.2537
 2522SOL    HW1 7565   0.828   0.976   1.952  0.4106  0.7188 -0.9109
 2522SOL    HW2 7566   0.911   0.860   1.901  0.2639  0.3614 -0.3549
 2523SOL     OW 7567   3.032   1.421   1.919 -0.1085 -0.5824 -0.1066
 2523SOL    HW1 7568   2.980   1.500   1.902  0.9163  0.0480 -0.3913
 2523SOL    HW2 7569   3.122   1.452   1.923  0.1261 -1.4146  2.0225
 2524SOL     OW 7570   2.216   0.747   3.914  0.2902  0.0242  0.0226
 2524SOL    HW1 7571   2.220   0.751   4.010  0.7478 -0.5376  0.0306
 2524SOL    HW2 7572   2.129   0.712   3.895  0.3266 -0.1821  0.2372
 2525SOL     OW 7573   3.610   3.938   1.602 -0.2001 -1.0583  0.2772
 2525SOL    HW1 7574   3.621   4.029   1.575  2.5655 -1.6487 -0.9334
 2525SOL    HW2 7575   3.606   3.942   1.698 -1.8628  0.3988  0.2134
 2526SOL     OW 7576   3.099   4.346   0.691  0.4829 -0.3339 -1.1403
 2526SOL    HW1 7577   3.192   4.346   0.711  0.5498  0.4815 -1.4248
 2526SOL    HW2 7578   3.086   4.423   0.635 -0.7976  1.1773  1.0701
 2527SOL     OW 7579   3.385   0.104   0.979 -0.2751 -0.4219  0.0612
 2527SOL    HW1 7580   3.374   0.182   1.032  0.5037 -0.7269  0.6966
 2527SOL    HW2 7581   3.325   0.116   0.905 -1.2327  0.0868  0.9024
 2528SOL     OW 7582   4.264   0.997   2.118 -0.4261 -0.0956  0.1738
 2528SOL    HW1 7583   4.312   0.915   2.106  0.1599 -0.1729  2.5118
 2528SOL    HW2 7584   4.322   1.051   2.171 -2.1389  0.5323  1.4945
 2529SOL     OW 7585   0.047   2.355   1.241  0.0371 -0.2094 -0.2061
 2529SOL    HW1 7586  -0.029   2.409   1.222 -0.3605  0.1154  2.0197
 2529SOL    HW2 7587   0.115   2.417   1.268  0.3275 -0.6430  0.0832
 2530SOL     OW 7588   2.957   4.048   1.960 -0.0695 -0.5442 -0.3803
 2530SOL    HW1 7589   2.882   4.098   1.928  0.4173  0.1803 -0.4204
 2530SOL    HW2 7590   3.030   4.074   1.903  0.3093 -0.9039 -0.0691
 2531SOL     OW 7591   0.436   0.747   3.677  0.1830  0.4086 -0.2165
 2531SOL    HW1 7592   0.455   0.679   3.742  1.1116  1.5434  0.7572
 2531SOL    HW2 7593   0.521   0.771   3.640  0.1540  2.2072  0.7228
 2532SOL     OW 7594   1.727   2.042   2.077  0.4956  0.2024 -0.3985
 2532SOL    HW1 7595   1.744   1.961   2.030  0.0274  0.0512 -0.3144
 2532SOL    HW2 7596   1.696   2.014   2.163  1.9944  0.4734  0.2568
 2533SOL     OW 7597   3.280   1.140   0.962 -0.2530 -0.3716 -0.0819
 2533SOL    HW1 7598   3.228   1.059   0.963  1.1535 -1.3215 -0.0528
 2533SOL    HW2 7599   3.320   1.141   0.876 -0.5131  0.4931 -0.2008
 2534SOL     OW 7600   0.808   2.416   0.290 -0.0236 -0.5808 -0.1407
 2534SOL    HW1 7601   0.791   2.330   0.252 -1.0135  0.2460 -1.6782
 2534SOL    HW2 7602   0.721   2.456   0.297  0.3112 -0.1013  1.5713
 2535SOL     OW 7603   3.647   0.640   1.789  0.1637  0.5100 -0.2516
 2535SOL    HW1 7604   3.644   0.666   1.881 -0.1992  1.9041 -0.6288
 2535SOL    HW2 7605   3.641   0.545   1.790  0.0446  0.5163  1.1564
 2536SOL     OW 7606   4.408   1.448   0.052  0.3903  0.0209 -0.1748
 2536SOL    HW1 7607   4.473   1.385   0.083 -1.6592 -1.5793  1.1241
 2536SOL    HW2 7608   4.343   1.395   0.008 -1.3974  1.1850  0.9375
 2537SOL     OW 7609   0.508   4.115   2.389 -0.0342 -0.1009  0.3326
 2537SOL    HW1 7610   0.572   4.139   2.323  0.8968 -0.4223  1.0839
 2537SOL    HW2 7611   0.504   4.191   2.447 -1.9469  0.7816 -0.8620
 2538SOL     OW 7612   2.798   1.682   0.424  0.0343  0.2031  0.1622
 2538SOL    HW1 7613   2.799   1.744   0.351 -1.9742  0.6313  0.4398
 2538SOL    HW2 7614   2.879   1.699   0.472  0.2097  1.6093 -0.5972
 2539SOL     OW 7615   3.595   0.196   4.309  0.6174 -0.6699  0.5361
 2539SOL    HW1 7616   3.517   0.243   4.279  0.8094 -1.0908 -0.6704
 2539SOL    HW2 7617   3.600   0.216   4.403 -0.7780 -0.4126  0.5834
 2540SOL     OW 7618   3.874   0.731   2.313 -0.0670 -0.7045  0.0979
 2540SOL    HW1 7619   3.948   0.718   2.254 -0.2933  1.3236 -0.6882
 2540SOL    HW2 7620   3.835   0.814   2.286  0.7562  1.2249  4.0504
 2541SOL     OW 7621   3.032   1.632   3.070  0.0886  0.5143  0.3025
 2541SOL    HW1 7622   2.956   1.635   3.012 -1.2983 -1.1512  1.9307
 2541SOL    HW2 7623   3.045   1.723   3.097  0.1482  1.1734 -1.7619
 2542SOL     OW 7624   3.857   3.978   2.217  0.8627  1.0361 -0.1253
 2542SOL    HW1 7625   3.764   3.986   2.238  1.0875  4.7641  0.0143
 2542SOL    HW2 7626   3.864   3.893   2.173 -2.6101  0.7222 -0.3499
 2543SOL     OW 7627   0.534   4.363   1.983 -0.1027  0.2068  0.0193
 2543SOL    HW1 7628   0.452   4.344   1.938 -0.7157  0.2691  1.0578
 2543SOL    HW2 7629   0.550   4.456   1.967 -1.2787  0.6836  1.3680
 2544SOL     OW 7630   0.834   3.623   1.481 -0.2124 -0.1228 -0.5284
 2544SOL    HW1 7631   0.798   3.605   1.568 -0.5629 -1.4243 -0.9133
 2544SOL    HW2 7632   0.785   3.699   1.450 -0.9348 -0.3845 -0.0690
 2545SOL     OW 7633   3.862   1.069   1.227  0.1334  0.0025  0.5953
 2545SOL    HW1 7634   3.901   0.999   1.279  1.0525 -0.3097 -0.4651
 2545SOL    HW2 7635   3.937   1.112   1.185 -0.5569  0.2852 -0.3969
 2546SOL     OW 7636   3.368   1.371   2.198 -0.0469 -0.5960  0.0933
 2546SOL    HW1 7637   3.303   1.413   2.253  2.4893 -0.3515  3.1823
 2546SOL    HW2 7638   3.448   1.422   2.212  2.1492 -3.8867  0.7271
 2547SOL     OW 7639   2.799   0.632   0.098  0.6729 -0.6052  0.2189
 2547SOL    HW1 7640   2.891   0.650   0.079  1.1416 -0.7471  2.1870
 2547SOL    HW2 7641   2.755   0.716   0.086  0.7332 -0.8264 -2.1750
 2548SOL     OW 7642   1.960   2.741   1.810 -0.2996 -0.0166  0.3094
 2548SOL    HW1 7643   1.866   2.729   1.826 -0.2845  0.7764  1.0351
 2548SOL    HW2 7644   1.965   2.777   1.721 -0.6208 -0.8473 -0.0577
 2549SOL     OW 7645   3.073   2.052   3.601 -0.0366  0.1488 -0.3936
 2549SOL    HW1 7646   3.065   2.081   3.510 -1.1472 -1.3524 -0.8163
 2549SOL    HW2 7647   3.149   2.101   3.635 -1.5565  3.2589 -1.0871
 2550SOL     OW 7648   2.985   3.717   3.697  0.7608 -0.7905 -0.0645
 2550SOL    HW1 7649   2.912   3.779   3.704  1.8841  0.5991 -0.2907
 2550SOL    HW2 7650   2.943   3.633   3.676 -0.8507 -0.2808  0.9075
 2551SOL     OW 7651   4.223   0.635   2.449 -0.4345 -0.1859 -0.4939
 2551SOL    HW1 7652   4.264   0.576   2.511  1.2449 -0.2208 -1.5797
 2551SOL    HW2 7653   4.133   0.645   2.481 -0.2754 -1.9731  0.6403
 2552SOL     OW 7654   4.135   1.316   2.227 -0.4831 -0.4811 -0.0802
 2552SOL    HW1 7655   4.090   1.326   2.144 -0.7896 -2.6622 -0.2431
 2552SOL    HW2 7656   4.066   1.287   2.288 -0.1030  0.2897  0.7491
 2553SOL     OW 7657   0.622   1.953   0.631 -0.4205 -0.8284  0.1344
 2553SOL    HW1 7658   0.681   1.917   0.697 -0.7524 -0.1346  0.8173
 2553SOL    HW2 7659   0.552   1.995   0.681 -1.1027 -0.9853 -0.6600
 2554SOL     OW 7660   2.239   3.617   0.989 -0.1282  0.9425 -0.0294
 2554SOL    HW1 7661   2.184   3.681   0.943  0.0161  1.1928  0.1428
 2554SOL    HW2 7662   2.326   3.656   0.988 -0.1384  0.9862  0.5223
 2555SOL     OW 7663   0.766   0.098   1.604  0.6700  0.1681 -0.3980
 2555SOL    HW1 7664   0.746   0.170   1.664 -1.2474 -1.6643  1.2927
 2555SOL    HW2 7665   0.706   0.111   1.530 -1.2224 -0.8026  0.8955
 2556SOL     OW 7666   1.087   3.848   2.920  0.5202  0.2932  0.3051
 2556SOL    HW1 7667   1.003   3.865   2.963 -0.1729 -1.3561 -0.3326
 2556SOL    HW2 7668   1.145   3.823   2.992 -0.7196 -2.7840  0.4151
 2557SOL     OW 7669   3.055   1.131   1.251 -0.2026 -0.1352 -0.1356
 2557SOL    HW1 7670   3.082   1.068   1.185 -0.3125 -0.1499 -0.1650
 2557SOL    HW2 7671   3.116   1.117   1.324 -0.1891 -0.2319 -0.1666
 2558SOL     OW 7672   1.234   2.034   2.724  0.2773 -0.0881 -0.4250
 2558SOL    HW1 7673   1.303   2.099   2.724 -0.1697  0.3924  0.2213
 2558SOL    HW2 7674   1.173   2.063   2.792  0.9709 -2.1232  1.1731
 2559SOL     OW 7675   3.211   2.798   3.458  0.0140 -0.6554  0.0361
 2559SOL    HW1 7676   3.139   2.735   3.444  1.2221 -1.6914 -1.9755
 2559SOL    HW2 7677   3.281   2.745   3.497  0.4212 -0.1566 -0.0124
 2560SOL     OW 7678   1.842   0.482   2.643 -0.4381 -0.1107  0.4834
 2560SOL    HW1 7679   1.914   0.498   2.704 -0.2464 -0.3523  0.3276
 2560SOL    HW2 7680   1.766   0.523   2.683  0.1022  1.5368 -0.0969
 2561SOL     OW 7681   1.546   1.182   0.173 -0.5093 -0.1290  0.2345
 2561SOL    HW1 7682   1.452   1.200   0.171 -0.6696 -0.9571 -1.8338
 2561SOL    HW2 7683   1.553   1.088   0.160  0.6345  0.1438 -1.3018
 2562SOL     OW 7684   0.928   4.187   3.341 -0.2651  0.3180  0.5438
 2562SOL    HW1 7685   0.852   4.161   3.289 -0.1248  0.1391  0.4258
 2562SOL    HW2 7686   0.999   4.197   3.277  1.1807 -4.3298  0.9802
 2563SOL     OW 7687   0.442   3.903   1.636  0.2163 -0.0346  0.2680
 2563SOL    HW1 7688   0.459   3.968   1.704 -1.2176  1.0093 -0.3237
 2563SOL    HW2 7689   0.370   3.850   1.669 -0.0491  0.0505 -0.1651
 2564SOL     OW 7690   4.188   1.769   2.032 -0.0111  0.0279  0.6251
 2564SOL    HW1 7691   4.223   1.858   2.045  0.3515  0.2330 -1.4590
 2564SOL    HW2 7692   4.093   1.780   2.034 -0.0108  0.8458 -1.5496
 2565SOL     OW 7693   3.868   0.171   1.712 -0.0222 -0.0400 -0.1357
 2565SOL    HW1 7694   3.919   0.220   1.776 -0.5822  0.8532 -0.3688
 2565SOL    HW2 7695   3.814   0.111   1.764 -0.2570  0.4717  0.2096
 2566SOL     OW 7696   3.607   0.246   0.935 -0.2401 -0.1559 -0.0344
 2566SOL    HW1 7697   3.530   0.189   0.931 -0.2049 -0.6108  3.0461
 2566SOL    HW2 7698   3.677   0.193   0.897 -1.0731 -0.4004 -1.2903
 2567SOL     OW 7699   1.283   1.490   3.872 -0.1310  0.2227 -0.1262
 2567SOL    HW1 7700   1.221   1.519   3.805 -0.5343 -0.7205 -0.1698
 2567SOL    HW2 7701   1.334   1.422   3.830 -0.0709 -0.0475  0.3801
 2568SOL     OW 7702   3.626   3.870   1.954 -0.3632  0.5337 -0.6056
 2568SOL    HW1 7703   3.719   3.873   1.934  0.0290  1.8110  1.1670
 2568SOL    HW2 7704   3.587   3.827   1.878  1.5281  0.8402 -1.8377
 2569SOL     OW 7705   3.921   2.382   1.659  0.6531  0.4014 -0.1945
 2569SOL    HW1 7706   3.985   2.447   1.690  0.3339  0.5857  0.0813
 2569SOL    HW2 7707   3.967   2.298   1.665 -0.1671  0.0897  3.0808
 2570SOL     OW 7708   3.266   0.820   3.256  0.4026  0.2464  0.2803
 2570SOL    HW1 7709   3.279   0.889   3.191  0.6425  1.4868  1.5898
 2570SOL    HW2 7710   3.349   0.816   3.303  0.3798 -0.9408  0.2512
 2571SOL     OW 7711   4.209   2.618   2.217  0.0429 -0.4171 -0.4234
 2571SOL    HW1 7712   4.189   2.528   2.242  0.5488  0.4156  3.7065
 2571SOL    HW2 7713   4.301   2.615   2.190 -0.0074 -1.1775 -0.5380
 2572SOL     OW 7714   3.377   0.360   0.435  0.3311 -0.5546  0.5508
 2572SOL    HW1 7715   3.348   0.400   0.517  2.1019  1.1800  0.4031
 2572SOL    HW2 7716   3.300   0.315   0.401 -1.1534  0.8943  1.8584
 2573SOL     OW 7717   4.049   3.481   2.930  0.2364 -0.4507 -0.0465
 2573SOL    HW1 7718   4.081   3.567   2.958 -0.0879 -0.6509  0.9971
 2573SOL    HW2 7719   4.126   3.424   2.935  0.1027 -0.5623  0.8025
 2574SOL     OW 7720   0.290   2.166   2.433 -0.1057 -0.3408  0.1428
 2574SOL    HW1 7721   0.343   2.166   2.353 -0.8441 -1.0562 -0.3621
 2574SOL    HW2 7722   0.206   2.130   2.406 -0.9405  0.9767  0.8812
 2575SOL     OW 7723   1.521   3.191   0.377 -0.7030  0.3667  0.2209
 2575SOL    HW1 7724   1.606   3.234   0.384 -0.3324 -0.6189  2.7028
 2575SOL    HW2 7725   1.476   3.213   0.458 -0.7677 -3.1840  1.3082
 2576SOL     OW 7726   4.150   2.463   3.650 -0.6766 -0.7760 -0.5580
 2576SOL    HW1 7727   4.138   2.426   3.737  0.1649  0.3977  0.0876
 2576SOL    HW2 7728   4.198   2.395   3.601 -0.6443 -1.2117  0.0715
 2577SOL     OW 7729   1.591   2.793   3.463  0.3652  0.6224 -0.0976
 2577SOL    HW1 7730   1.636   2.717   3.498  0.6505  1.1600  0.7129
 2577SOL    HW2 7731   1.509   2.757   3.426  0.9151 -0.1886 -0.5634
 2578SOL     OW 7732   3.524   3.008   3.545  0.1677  0.9447 -0.1654
 2578SOL    HW1 7733   3.611   3.047   3.538  0.0506  1.1081 -0.7097
 2578SOL    HW2 7734   3.464   3.077   3.516  0.1035 -0.3875 -3.5915
 2579SOL     OW 7735   0.781   0.387   3.661  0.2803 -0.5052  0.2157
 2579SOL    HW1 7736   0.801   0.301   3.698 -2.2731 -0.6164  1.5478
 2579SOL    HW2 7737   0.699   0.375   3.614 -1.3116  1.5903  2.2644
 2580SOL     OW 7738   4.288   0.853   3.515 -0.1856 -0.1554 -0.1585
 2580SOL    HW1 7739   4.264   0.911   3.587  0.9263 -1.1102  1.0217
 2580SOL    HW2 7740   4.249   0.893   3.437 -2.5236  0.2145  1.1332
 2581SOL     OW 7741   4.078   1.426   0.578  0.2710 -0.3505  0.4864
 2581SOL    HW1 7742   3.990   1.451   0.608  0.2764  0.4338 -0.1149
 2581SOL    HW2 7743   4.112   1.370   0.648 -0.7118 -0.6759  0.7185
 2582SOL     OW 7744   0.234   3.766   1.173 -0.4384 -0.3251  0.1827
 2582SOL    HW1 7745   0.288   3.796   1.246 -1.1808  0.0686  0.5808
 2582SOL    HW2 7746   0.286   3.785   1.095  0.2429 -0.4971  0.5935
 2583SOL     OW 7747   1.473   2.376   0.697 -0.0981 -0.6533  0.0492
 2583SOL    HW1 7748   1.509   2.358   0.783 -0.2750  0.1861  0.3069
 2583SOL    HW2 7749   1.379   2.360   0.706 -0.1489 -0.3348  0.0702
 2584SOL     OW 7750   4.299   2.382   4.081 -0.0410  0.1978  0.4836
 2584SOL    HW1 7751   4.274   2.326   4.155 -2.7602  1.4391  0.6090
 2584SOL    HW2 7752   4.339   2.459   4.121 -2.2699  1.2520  0.8103
 2585SOL     OW 7753   4.480   2.570   3.608 -0.7418 -0.3354  0.8255
 2585SOL    HW1 7754   4.414   2.506   3.581 -0.1278 -0.6244 -0.0267
 2585SOL    HW2 7755   4.525   2.529   3.681 -0.5423 -0.7601  0.4676
 2586SOL     OW 7756   2.201   0.929   3.438 -0.1220  0.3413 -0.3765
 2586SOL    HW1 7757   2.131   0.866   3.456  0.8854 -0.8217 -0.3997
 2586SOL    HW2 7758   2.274   0.876   3.408  1.4123  1.2995  1.4094
 2587SOL     OW 7759   0.323   0.630   2.540 -0.5799  0.2104 -0.4316
 2587SOL    HW1 7760   0.320   0.584   2.456 -1.5792  0.8335 -0.7567
 2587SOL    HW2 7761   0.249   0.690   2.536 -0.2723  0.6703  0.6592
 2588SOL     OW 7762   3.054   0.251   3.460 -0.4644 -0.3713 -0.8169
 2588SOL    HW1 7763   2.984   0.240   3.396 -1.4124 -0.3873  0.1899
 2588SOL    HW2 7764   3.099   0.332   3.433 -0.3442 -0.7904 -1.9326
 2589SOL     OW 7765   2.578   1.713   3.487  0.5049  0.5577  0.7599
 2589SOL    HW1 7766   2.637   1.691   3.559  0.4527 -0.0491  0.6268
 2589SOL    HW2 7767   2.632   1.764   3.426  1.1126 -0.6136  0.2880
 2590SOL     OW 7768   2.496   3.524   1.081  0.1686  0.2595  0.1844
 2590SOL    HW1 7769   2.418   3.472   1.059 -2.1395  2.3512  2.7804
 2590SOL    HW2 7770   2.520   3.568   0.999 -1.3884 -0.4105 -0.6662
 2591SOL     OW 7771   2.646   1.136   0.575 -0.7919  0.1276 -0.0347
 2591SOL    HW1 7772   2.636   1.137   0.670 -1.1993 -2.3010  0.0141
 2591SOL    HW2 7773   2.684   1.221   0.554  2.5668 -0.4825  2.6802
 2592SOL     OW 7774   2.842   1.272   1.410  0.1470 -0.0635  0.0355
 2592SOL    HW1 7775   2.907   1.213   1.372  0.9358  0.4087  0.6225
 2592SOL    HW2 7776   2.880   1.359   1.399 -0.6239  0.2638 -0.0693
 2593SOL     OW 7777   3.185   0.476   3.334  0.6625 -0.0432  0.2934
 2593SOL    HW1 7778   3.230   0.540   3.278  1.3520 -0.7915 -0.0297
 2593SOL    HW2 7779   3.255   0.437   3.387 -0.0368  1.0107  2.0841
 2594SOL     OW 7780   1.047   3.363   2.694  0.6265  0.1125  0.4002
 2594SOL    HW1 7781   0.972   3.308   2.669  0.2619  1.5840 -1.9556
 2594SOL    HW2 7782   1.108   3.354   2.622  1.3966  1.3138  0.8811
 2595SOL     OW 7783   1.561   0.660   3.431 -0.4648 -0.4689 -0.2369
 2595SOL    HW1 7784   1.519   0.608   3.363 -0.9970  0.7000 -0.8345
 2595SOL    HW2 7785   1.596   0.736   3.385  1.6409 -0.9876  0.3596
 2596SOL     OW 7786   4.308   0.755   0.146 -0.0991  0.7866 -0.3895
 2596SOL    HW1 7787   4.332   0.692   0.078  1.3500 -0.0574  0.8192
 2596SOL    HW2 7788   4.215   0.772   0.133 -0.0556 -0.0594 -1.9802
 2597SOL     OW 7789   0.376   0.496   2.941 -0.0627  0.2720 -0.3339
 2597SOL    HW1 7790   0.397   0.575   2.891  0.1296 -0.0140 -0.7115
 2597SOL    HW2 7791   0.373   0.525   3.032  1.8635  0.3547 -0.2592
 2598SOL     OW 7792   3.347   0.543   3.128 -0.5499  0.1426  0.6273
 2598SOL    HW1 7793   3.337   0.456   3.088  1.5103  0.9678 -2.0395
 2598SOL    HW2 7794   3.432   0.540   3.171 -0.6022  0.7610  0.7814
 2599SOL     OW 7795   1.128   3.839   2.457 -0.2748  0.2486  0.3335
 2599SOL    HW1 7796   1.131   3.804   2.546 -0.5241 -0.5670  0.0300
 2599SOL    HW2 7797   1.142   3.763   2.401  1.5342  1.0134 -0.3020
 2600SOL     OW 7798   3.733   0.651   3.446 -0.0129  0.0209 -0.5484
 2600SOL    HW1 7799   3.684   0.697   3.514 -1.3861 -1.0623 -0.7387
 2600SOL    HW2 7800   3.809   0.707   3.428 -1.6432  2.2800 -0.8807
 2601SOL     OW 7801   3.651   4.201   1.605  0.1304 -0.2326 -0.7560
 2601SOL    HW1 7802   3.715   4.270   1.588 -0.8820  0.8959 -0.2661
 2601SOL    HW2 7803   3.592   4.240   1.671 -1.0712 -1.1926 -1.2218
 2602SOL     OW 7804   1.279   1.059   1.283 -0.0926 -0.5935  0.0236
 2602SOL    HW1 7805   1.251   1.013   1.204  1.2561  0.0473 -0.8846
 2602SOL    HW2 7806   1.256   1.001   1.355 -3.1316 -0.3443 -0.6476
 2603SOL     OW 7807   4.458   2.257   2.602 -0.3244  0.2937 -0.2764
 2603SOL    HW1 7808   4.492   2.319   2.538  0.3660 -0.5836 -0.7809
 2603SOL    HW2 7809   4.384   2.215   2.559  0.1559 -0.3154 -0.5189
 2604SOL     OW 7810   2.681   3.286   1.074 -0.0543 -0.0977  0.0569
 2604SOL    HW1 7811   2.621   3.360   1.084 -1.0296 -0.8114 -0.4095
 2604SOL    HW2 7812   2.648   3.239   0.998  0.7414 -0.8473  0.1692
 2605SOL     OW 7813   3.118   1.225   2.210 -0.8115  0.7826  0.1985
 2605SOL    HW1 7814   3.213   1.238   2.207 -0.2842 -2.2491  0.6700
 2605SOL    HW2 7815   3.091   1.225   2.118  0.3122 -1.8146 -0.2326
 2606SOL     OW 7816   3.245   0.868   2.454  0.0042  0.5746  0.0740
 2606SOL    HW1 7817   3.181   0.882   2.385  0.6043  1.1577 -0.3751
 2606SOL    HW2 7818   3.199   0.893   2.534 -0.2293  1.3220 -0.2815
 2607SOL     OW 7819   2.204   3.631   1.461  0.2645  0.2566 -0.3821
 2607SOL    HW1 7820   2.134   3.567   1.472  2.1561 -1.8861 -0.1413
 2607SOL    HW2 7821   2.170   3.694   1.398 -2.4074  0.1617  0.8522
 2608SOL     OW 7822   2.045   2.450   0.320  0.5107  0.1937 -0.6873
 2608SOL    HW1 7823   1.959   2.441   0.280 -0.4611 -0.1071  1.3884
 2608SOL    HW2 7824   2.071   2.360   0.341 -1.0895  0.4774  3.4250
 2609SOL     OW 7825   4.283   1.049   1.556 -0.5560 -0.7969  0.3542
 2609SOL    HW1 7826   4.356   1.013   1.606 -0.0933 -0.4126 -0.0255
 2609SOL    HW2 7827   4.323   1.120   1.504 -1.2133 -0.5370  0.1975
 2610SOL     OW 7828   4.380   4.401   0.052  0.1212 -0.5455 -0.5330
 2610SOL    HW1 7829   4.465   4.429   0.085 -0.1999  0.5320 -0.5830
 2610SOL    HW2 7830   4.398   4.367  -0.036  0.9137 -3.0499  0.5242
 2611SOL     OW 7831   0.755   2.772   2.459  0.1902 -0.2782 -0.0778
 2611SOL    HW1 7832   0.702   2.750   2.382 -1.5988 -2.0643  1.5494
 2611SOL    HW2 7833   0.835   2.721   2.448 -0.7269 -1.7911 -0.0494
 2612SOL     OW 7834   4.273   0.607   3.452  0.0665  0.3553  0.4409
 2612SOL    HW1 7835   4.357   0.583   3.412 -0.1504  0.8098 -0.3097
 2612SOL    HW2 7836   4.285   0.698   3.478 -0.0186  0.2579  0.8331
 2613SOL     OW 7837   4.177   0.825   1.037  0.2386 -0.1018 -0.0821
 2613SOL    HW1 7838   4.137   0.754   1.087 -0.7031 -1.1780 -2.2634
 2613SOL    HW2 7839   4.267   0.830   1.071  0.0272 -1.6559  0.8060
 2614SOL     OW 7840   3.797   3.335   4.459  0.0300  0.3810  0.0135
 2614SOL    HW1 7841   3.875   3.351   4.512 -0.3414 -0.9067  1.0188
 2614SOL    HW2 7842   3.824   3.268   4.396  0.3181  1.5157 -1.1114
 2615SOL     OW 7843   0.470   2.107   0.805  0.3166  0.6056  0.0302
 2615SOL    HW1 7844   0.485   2.154   0.887  0.5537  1.9804 -0.7786
 2615SOL    HW2 7845   0.381   2.073   0.812  0.7600 -0.3548  1.3528
 2616SOL     OW 7846   3.324   0.400   2.055  0.2304 -0.1365 -0.3327
 2616SOL    HW1 7847   3.406   0.407   2.007 -0.1249  0.0233 -0.9148
 2616SOL    HW2 7848   3.342   0.440   2.140  0.5402  0.5708 -0.7297
 2617SOL     OW 7849   1.408   1.178   4.164  0.2725  0.2188  0.0873
 2617SOL    HW1 7850   1.483   1.183   4.105  1.5811 -2.0000  1.4467
 2617SOL    HW2 7851   1.446   1.182   4.252 -1.3271  0.3301  0.8103
 2618SOL     OW 7852   0.159   1.139   2.980  0.2066  0.1786 -0.2746
 2618SOL    HW1 7853   0.083   1.081   2.978  2.0331 -2.4198 -0.6409
 2618SOL    HW2 7854   0.226   1.091   2.931  3.4335  0.2348  3.5616
 2619SOL     OW 7855   1.300   3.401   1.368  0.5156  0.0600 -0.6549
 2619SOL    HW1 7856   1.227   3.446   1.409  2.0913  2.1575  0.0358
 2619SOL    HW2 7857   1.264   3.364   1.287 -1.9046 -1.4234  0.9929
 2620SOL     OW 7858   0.793   0.398   4.075  0.2531 -0.2798 -0.0141
 2620SOL    HW1 7859   0.852   0.447   4.132  0.4550  0.8396 -1.1350
 2620SOL    HW2 7860   0.705   0.420   4.107  0.2736  1.8962 -1.2505
 2621SOL     OW 7861   1.281   3.625   3.507  0.4283  0.7182 -0.2034
 2621SOL    HW1 7862   1.305   3.537   3.479  2.0203  0.8886  0.5117
 2621SOL    HW2 7863   1.363   3.662   3.541 -0.1310  2.5894 -0.7918
 2622SOL     OW 7864   2.510   3.216   4.038 -0.2008  0.3326 -0.2892
 2622SOL    HW1 7865   2.504   3.155   4.111  0.8635  0.2654 -0.2449
 2622SOL    HW2 7866   2.591   3.192   3.993  0.2371  1.6933 -0.2789
 2623SOL     OW 7867   1.132   2.195   0.884  0.0647 -0.1932 -0.2553
 2623SOL    HW1 7868   1.123   2.104   0.911 -1.4443  0.5023  1.9575
 2623SOL    HW2 7869   1.044   2.220   0.855  0.2376  0.7646 -0.0072
 2624SOL     OW 7870   1.781   0.888   1.524 -0.3034  0.0901 -0.2658
 2624SOL    HW1 7871   1.842   0.907   1.453 -0.6398 -1.2948 -0.9721
 2624SOL    HW2 7872   1.798   0.796   1.546 -2.1141 -0.3287 -0.4728
 2625SOL     OW 7873   0.470   0.324   3.900  0.5288 -0.6814  0.2678
 2625SOL    HW1 7874   0.501   0.262   3.835 -0.2790 -2.0835  1.1598
 2625SOL    HW2 7875   0.375   0.315   3.898  0.3804  0.7080  0.2659
 2626SOL     OW 7876   2.327   0.956   1.880 -0.4985 -0.6661 -0.3280
 2626SOL    HW1 7877   2.390   0.972   1.809 -0.3458 -1.0061 -0.2694
 2626SOL    HW2 7878   2.378   0.970   1.960 -0.8466  0.4087 -0.2806
 2627SOL     OW 7879   0.563   4.444   0.654 -0.1456  0.0398 -0.2198
 2627SOL    HW1 7880   0.568   4.400   0.739 -1.8999 -1.5128 -0.8319
 2627SOL    HW2 7881   0.508   4.521   0.669  1.4118  1.0510  0.4807
 2628SOL     OW 7882   2.654   1.177   4.036 -0.1482 -0.6129 -0.2095
 2628SOL    HW1 7883   2.666   1.251   3.976 -2.0348  1.4455  1.7557
 2628SOL    HW2 7884   2.581   1.128   3.999 -2.2246  1.4210  0.9648
 2629SOL     OW 7885   1.521   3.926   1.791  0.0671 -0.0474 -0.0366
 2629SOL    HW1 7886   1.515   3.978   1.711  1.7648  0.4146  0.0999
 2629SOL    HW2 7887   1.569   3.847   1.765  3.4282  1.4682  1.0663
 2630SOL     OW 7888   1.973   3.492   1.975 -0.2689 -0.2210 -0.2170
 2630SOL    HW1 7889   2.001   3.401   1.982 -2.2338 -0.7643  2.1914
 2630SOL    HW2 7890   1.881   3.487   1.949 -0.8121  0.9442  1.3039
 2631SOL     OW 7891   0.103   3.047   3.613 -0.0661 -0.0205 -0.5546
 2631SOL    HW1 7892   0.151   3.044   3.530 -0.4001  2.4367 -0.9384
 2631SOL    HW2 7893   0.027   3.102   3.594 -0.2544  0.4307  1.3081
 2632SOL     OW 7894   3.607   4.325   1.113  0.1756 -0.7079 -0.2411
 2632SOL    HW1 7895   3.539   4.380   1.074  0.6641  0.3641  0.3654
 2632SOL    HW2 7896   3.657   4.385   1.169  3.3582 -0.7909 -2.7450
 2633SOL     OW 7897   1.047   2.656   4.167  0.0036 -0.4605  0.2252
 2633SOL    HW1 7898   1.096   2.679   4.246 -0.7646 -0.8218  0.8224
 2633SOL    HW2 7899   0.956   2.675   4.189 -0.2273 -0.6443 -0.5480
 2634SOL     OW 7900   3.978   0.636   4.329  0.2128 -0.0855 -0.4487
 2634SOL    HW1 7901   3.998   0.576   4.257  1.7721  0.8277 -0.8197
 2634SOL    HW2 7902   4.054   0.694   4.334 -0.6249  0.9629  0.8270
 2635SOL     OW 7903   4.173   4.456   0.238  0.0690  0.5260 -0.1139
 2635SOL    HW1 7904   4.118   4.520   0.192  0.8104  1.2980  0.0475
 2635SOL    HW2 7905   4.231   4.422   0.170 -0.7219 -0.4656 -0.3368
 2636SOL     OW 7906   2.692   1.077   3.435 -0.7626  0.4943 -0.5057
 2636SOL    HW1 7907   2.664   1.147   3.494  0.7287  1.3005 -0.6998
 2636SOL    HW2 7908   2.766   1.036   3.479 -2.1785 -1.6398  0.0447
 2637SOL     OW 7909   0.424   2.921   3.667  0.3533  0.2251 -0.3886
 2637SOL    HW1 7910   0.377   2.865   3.729 -0.1920  0.0646 -0.9483
 2637SOL    HW2 7911   0.435   2.867   3.589  1.4988  0.2452 -0.2686
 2638SOL     OW 7912   1.456   0.952   2.566  0.0462  0.1237 -0.1402
 2638SOL    HW1 7913   1.464   0.956   2.661  0.2073 -1.0178 -0.0995
 2638SOL    HW2 7914   1.544   0.970   2.533  0.1968 -0.4271 -0.0426
 2639SOL     OW 7915   0.824   1.289   3.316  0.1900  0.1153 -0.4334
 2639SOL    HW1 7916   0.864   1.376   3.316  0.4274  0.0533  1.2940
 2639SOL    HW2 7917   0.883   1.235   3.369  0.5094 -1.3489 -2.1949
 2640SOL     OW 7918   3.662   0.436   3.880 -0.3699 -0.7690 -0.3992
 2640SOL    HW1 7919   3.591   0.500   3.883 -1.8609 -2.3387  3.1036
 2640SOL    HW2 7920   3.741   0.486   3.903 -0.1529  0.9400 -4.0868
 2641SOL     OW 7921   2.832   2.902   2.551 -0.4716  0.1244 -0.4458
 2641SOL    HW1 7922   2.915   2.876   2.591 -0.2261  0.6717 -0.6004
 2641SOL    HW2 7923   2.852   2.980   2.500 -0.8278 -0.3954 -1.4349
 2642SOL     OW 7924   2.371   1.548   3.834  0.5465 -0.0384  0.0906
 2642SOL    HW1 7925   2.358   1.475   3.895  1.6367  0.3201  0.7714
 2642SOL    HW2 7926   2.348   1.512   3.748 -0.8951 -0.5940  0.6701
 2643SOL     OW 7927   0.752   2.261   1.000  0.0753 -0.2336  0.4760
 2643SOL    HW1 7928   0.825   2.293   1.053 -0.9966 -0.0474  1.8761
 2643SOL    HW2 7929   0.791   2.244   0.914  2.1429 -1.7299  1.6245
 2644SOL     OW 7930   3.881   0.468   2.422  0.3707 -0.5516  0.0490
 2644SOL    HW1 7931   3.836   0.397   2.376 -0.0125  0.6385 -1.4764
 2644SOL    HW2 7932   3.872   0.544   2.364  2.5319  0.2541  0.6867
 2645SOL     OW 7933   2.966   0.018   1.270  0.3986  0.3472  0.2494
 2645SOL    HW1 7934   2.939   0.074   1.197 -0.5667  1.0999  1.1502
 2645SOL    HW2 7935   2.935  -0.069   1.247 -1.0123  0.8152  0.3135
 2646SOL     OW 7936   0.100   3.136   0.312  0.1527 -0.0613  0.4909
 2646SOL    HW1 7937   0.150   3.077   0.369  0.3809  0.2374  0.6047
 2646SOL    HW2 7938   0.050   3.190   0.373 -0.3324 -0.3703  0.3780
 2647SOL     OW 7939   4.176   1.265   4.005 -0.3285  0.3109 -0.2092
 2647SOL    HW1 7940   4.210   1.332   3.945  1.3573 -0.7843 -0.5376
 2647SOL    HW2 7941   4.124   1.207   3.950 -0.1244  0.2226 -0.3105
 2648SOL     OW 7942   3.019   2.395   2.734  0.6787  0.1063 -0.0726
 2648SOL    HW1 7943   2.963   2.464   2.698 -0.9591 -0.4323  1.2988
 2648SOL    HW2 7944   3.106   2.435   2.740 -0.3029  2.2257  1.0519
 2649SOL     OW 7945   0.313   1.071   2.720 -0.2066  0.1075  0.0613
 2649SOL    HW1 7946   0.301   1.144   2.659 -1.4933 -0.6411 -0.6285
 2649SOL    HW2 7947   0.407   1.068   2.735 -0.0911  1.7339 -0.0959
 2650SOL     OW 7948   3.621   1.139   3.681 -0.0562  0.0750  0.0016
 2650SOL    HW1 7949   3.643   1.097   3.764 -0.6701  0.4691  0.3736
 2650SOL    HW2 7950   3.691   1.203   3.668 -0.6509  0.9445  0.9009
 2651SOL     OW 7951   4.371   1.084   2.680  0.0055 -0.0369 -0.2052
 2651SOL    HW1 7952   4.371   1.169   2.725  0.4530 -0.6617  0.9914
 2651SOL    HW2 7953   4.394   1.021   2.747 -0.6801 -1.1716 -1.0055
 2652SOL     OW 7954   2.483   1.454   1.556 -0.3331 -0.5560  0.2908
 2652SOL    HW1 7955   2.474   1.393   1.483  0.0737  0.8192 -0.9695
 2652SOL    HW2 7956   2.575   1.448   1.581  0.4392  1.4008 -1.6595
 2653SOL     OW 7957   0.313   1.759   4.092  0.0952  0.0480 -0.1320
 2653SOL    HW1 7958   0.247   1.754   4.161  1.1195  1.6745  1.0615
 2653SOL    HW2 7959   0.334   1.668   4.071 -1.2056 -0.4758  0.7530
 2654SOL     OW 7960   1.121   0.204   1.266 -0.1967 -0.1869  0.6525
 2654SOL    HW1 7961   1.171   0.277   1.229 -0.3854  0.0276  0.8146
 2654SOL    HW2 7962   1.165   0.185   1.349  0.7457 -1.2293 -0.0604
 2655SOL     OW 7963   1.371   3.828   0.333 -0.2327 -0.2767  1.0559
 2655SOL    HW1 7964   1.460   3.831   0.297 -1.0520  1.1271 -1.0498
 2655SOL    HW2 7965   1.362   3.908   0.384 -0.9365  0.6713 -0.5041
 2656SOL     OW 7966   3.266   3.908   2.093 -0.6781  0.0609 -0.1374
 2656SOL    HW1 7967   3.253   3.962   2.015 -0.2628 -0.7219 -0.7654
 2656SOL    HW2 7968   3.348   3.861   2.076  0.3608  1.1580  1.5353
 2657SOL     OW 7969   3.458   1.964   1.457  0.0550  1.0814  0.1159
 2657SOL    HW1 7970   3.543   1.921   1.450 -0.5004 -0.2028  0.9022
 2657SOL    HW2 7971   3.479   2.052   1.489  1.0579  0.6402  0.7243
 2658SOL     OW 7972   3.420   4.499   3.313 -0.0260  0.3439  0.5025
 2658SOL    HW1 7973   3.400   4.438   3.243 -0.1991 -0.0225  0.8684
 2658SOL    HW2 7974   3.344   4.497   3.370  0.0182  0.8118  0.5817
 2659SOL     OW 7975   4.078   2.168   1.650 -0.2988 -0.5509 -0.0161
 2659SOL    HW1 7976   4.138   2.182   1.577 -2.4258  0.9106 -1.5898
 2659SOL    HW2 7977   4.134   2.170   1.728  1.5592  2.1638 -1.2835
 2660SOL     OW 7978   3.443   2.372   0.190  0.2038 -0.1727 -0.2735
 2660SOL    HW1 7979   3.388   2.450   0.200  2.7701  1.6679  0.5450
 2660SOL    HW2 7980   3.467   2.347   0.279  0.1224 -1.4108 -0.5731
 2661SOL     OW 7981   3.467   2.487   1.942  0.2940 -0.4417 -0.0836
 2661SOL    HW1 7982   3.558   2.465   1.922 -0.2680 -2.8089 -0.2778
 2661SOL    HW2 7983   3.421   2.473   1.860 -0.7665 -2.6539  0.8095
 2662SOL     OW 7984   0.128   2.160   3.977  0.7520 -0.4109 -0.0292
 2662SOL    HW1 7985   0.089   2.241   3.945  1.6236  0.6648  1.4742
 2662SOL    HW2 7986   0.060   2.122   4.034  0.1188 -1.0824 -1.1914
 2663SOL     OW 7987   2.699   2.056   4.189 -0.1358  0.5227  0.8527
 2663SOL    HW1 7988   2.610   2.078   4.218 -1.7205 -2.4013 -1.2597
 2663SOL    HW2 7989   2.691   2.044   4.094  2.5425  0.1488  0.5973
 2664SOL     OW 7990   3.477   2.073   3.788 -0.1140 -0.4777 -0.1205
 2664SOL    HW1 7991   3.422   2.144   3.755  0.8160  0.4412  0.2470
 2664SOL    HW2 7992   3.496   2.098   3.878  0.0394 -1.3111  0.0806
 2665SOL     OW 7993   1.201   4.100   1.710 -0.0431 -0.1444  0.5640
 2665SOL    HW1 7994   1.135   4.160   1.673  0.7446 -0.0682 -0.7698
 2665SOL    HW2 7995   1.208   4.127   1.802 -0.0375  1.5226  0.1078
 2666SOL     OW 7996   1.431   1.998   4.234  0.3671 -0.1266  0.5206
 2666SOL    HW1 7997   1.397   2.050   4.161  1.9794  1.7214  0.9987
 2666SOL    HW2 7998   1.494   1.938   4.194 -1.4214 -1.7448 -0.0209
 2667SOL     OW 7999   2.584   3.681   4.189 -0.1523  0.0933  0.2917
 2667SOL    HW1 8000   2.642   3.723   4.126  1.1720 -0.4266  1.1232
 2667SOL    HW2 8001   2.574   3.591   4.157 -3.2193  0.9593 -1.6498
 2668SOL     OW 8002   4.222   1.012   3.711 -0.6719  0.0053 -0.3270
 2668SOL    HW1 8003   4.157   1.019   3.781 -0.4438 -0.7242 -0.0319
 2668SOL    HW2 8004   4.304   0.993   3.757 -0.3648  0.3022 -0.7435
 2669SOL     OW 8005   0.228   1.133   3.357 -0.1600  0.3817 -0.1609
 2669SOL    HW1 8006   0.216   1.142   3.452  1.7657  3.8892 -0.0973
 2669SOL    HW2 8007   0.153   1.180   3.319  0.0824  0.6277 -0.3345
 2670SOL     OW 8008   3.977   2.744   1.326 -0.2710 -0.6406  0.3937
 2670SOL    HW1 8009   3.909   2.737   1.259 -1.9821  3.5301  1.3675
 2670SOL    HW2 8010   3.928   2.756   1.408  1.7525 -3.0215  2.0895
 2671SOL     OW 8011   2.884   4.240   1.197  0.1366 -0.2050 -0.4314
 2671SOL    HW1 8012   2.798   4.203   1.218 -0.1831  0.4657 -0.5202
 2671SOL    HW2 8013   2.934   4.167   1.162 -0.0603 -0.8451  0.5675
 2672SOL     OW 8014   3.759   3.251   1.292 -0.0998 -0.0605  0.0136
 2672SOL    HW1 8015   3.669   3.282   1.289 -0.1617 -0.0397  1.4723
 2672SOL    HW2 8016   3.812   3.331   1.280 -0.2623 -0.0277 -0.5168
 2673SOL     OW 8017   3.216   1.122   3.555 -0.1451 -0.5108  0.1216
 2673SOL    HW1 8018   3.209   1.174   3.475 -0.2927 -0.9060 -0.1236
 2673SOL    HW2 8019   3.164   1.170   3.619 -0.3717 -0.4105 -0.1342
 2674SOL     OW 8020   3.880   4.364   1.639  0.0069 -0.2274 -0.2005
 2674SOL    HW1 8021   3.932   4.442   1.662  1.2091 -0.5071 -1.8002
 2674SOL    HW2 8022   3.884   4.309   1.717 -1.0797  1.3683  1.0739
 2675SOL     OW 8023   3.745   4.147   4.458 -0.5129 -0.4733  0.4757
 2675SOL    HW1 8024   3.811   4.079   4.473  0.6706  0.9804  2.2679
 2675SOL    HW2 8025   3.744   4.158   4.363  3.4296  0.8436  0.4005
 2676SOL     OW 8026   3.641   1.061   1.402 -0.2895  0.5652 -0.1255
 2676SOL    HW1 8027   3.700   1.038   1.330 -1.2475 -2.7647  0.0016
 2676SOL    HW2 8028   3.564   1.006   1.388 -0.8217  0.3473  3.0201
 2677SOL     OW 8029   3.573   0.125   0.679 -0.1354 -0.3255 -0.3367
 2677SOL    HW1 8030   3.584   0.218   0.701 -2.0256  0.0349 -0.7015
 2677SOL    HW2 8031   3.517   0.126   0.601  0.1501 -1.7796 -0.5857
 2678SOL     OW 8032   0.309   2.926   0.323  0.1760  0.1455  0.1392
 2678SOL    HW1 8033   0.372   2.987   0.285  0.2049 -0.1645 -0.3100
 2678SOL    HW2 8034   0.342   2.910   0.412 -0.2045  1.3142  0.5130
 2679SOL     OW 8035   3.836   2.141   1.984  0.2998  0.4030 -0.0245
 2679SOL    HW1 8036   3.787   2.123   1.904  1.2191 -0.1420 -0.4719
 2679SOL    HW2 8037   3.777   2.114   2.054 -0.2585  0.2666 -0.5366
 2680SOL     OW 8038   0.994   3.414   0.820 -0.2657 -0.2047  0.1720
 2680SOL    HW1 8039   1.069   3.436   0.765  0.9681 -1.0222  1.4599
 2680SOL    HW2 8040   0.935   3.365   0.763  0.2534  0.2873 -0.8056
 2681SOL     OW 8041   2.238   2.278   4.192  0.5798  0.0792 -0.1022
 2681SOL    HW1 8042   2.161   2.245   4.146 -0.6410  0.8989  1.2366
 2681SOL    HW2 8043   2.300   2.206   4.191 -0.2060 -0.6094 -1.2103
 2682SOL     OW 8044   2.788   1.202   1.085  1.0076 -0.0263 -0.0650
 2682SOL    HW1 8045   2.793   1.292   1.115 -0.0543  0.2452 -0.6509
 2682SOL    HW2 8046   2.811   1.149   1.162 -0.1717  0.6894  0.8134
 2683SOL     OW 8047   4.417   1.015   2.957 -0.1639  0.1867  0.2951
 2683SOL    HW1 8048   4.386   0.926   2.971  1.0796 -0.2410  0.4659
 2683SOL    HW2 8049   4.347   1.071   2.991 -0.3392 -0.7358  1.5207
 2684SOL     OW 8050   4.051   0.995   4.422 -0.6972  0.2319 -0.0088
 2684SOL    HW1 8051   4.018   1.041   4.346  0.2832 -1.3025 -1.4378
 2684SOL    HW2 8052   4.037   1.055   4.495 -2.0827  1.5625 -1.3064
 2685SOL     OW 8053   2.580   4.363   4.113  0.0142 -0.0219  0.2179
 2685SOL    HW1 8054   2.589   4.380   4.019  1.7082  1.4193  0.5730
 2685SOL    HW2 8055   2.660   4.316   4.136  0.9861  2.0775  1.3744
 2686SOL     OW 8056   1.235   3.894   3.517 -0.1707 -0.1467  0.1397
 2686SOL    HW1 8057   1.277   3.928   3.596 -0.8739 -0.5779  0.7018
 2686SOL    HW2 8058   1.280   3.811   3.500  1.8976  1.1967 -1.5192
 2687SOL     OW 8059   1.256   4.102   4.210 -0.0877 -0.5965  0.0492
 2687SOL    HW1 8060   1.168   4.069   4.227 -0.7953 -0.5181 -2.9003
 2687SOL    HW2 8061   1.304   4.026   4.176  0.7727 -0.4476  0.8874
 2688SOL     OW 8062   1.324   1.557   1.341  0.0279 -0.0331  0.0852
 2688SOL    HW1 8063   1.330   1.490   1.273 -0.6891 -0.7836  0.7247
 2688SOL    HW2 8064   1.352   1.512   1.421  0.2756  0.6545  0.3908
 2689SOL     OW 8065   0.318   1.617   3.100 -0.1146 -0.4365 -0.1521
 2689SOL    HW1 8066   0.338   1.566   3.179  0.0249  1.0054  0.7742
 2689SOL    HW2 8067   0.330   1.708   3.126  1.7702  0.0242 -2.3717
 2690SOL     OW 8068   1.443   0.790   4.435  0.1312  0.4591  0.1157
 2690SOL    HW1 8069   1.448   0.696   4.421  0.9702  0.6225 -0.8784
 2690SOL    HW2 8070   1.500   0.827   4.367 -2.4627  1.8410 -1.4937
 2691SOL     OW 8071   0.742   3.840   2.314 -0.1596 -0.0947  0.6917
 2691SOL    HW1 8072   0.820   3.805   2.356 -0.5142 -0.0443  1.3971
 2691SOL    HW2 8073   0.776   3.900   2.247  0.4380 -1.2713 -0.1007
 2692SOL     OW 8074   4.374   2.764   1.476  0.5335  0.0778  0.3362
 2692SOL    HW1 8075   4.444   2.727   1.423 -0.9944 -0.8755 -1.1159
 2692SOL    HW2 8076   4.304   2.783   1.414 -1.2342 -0.8046  1.9319
 2693SOL     OW 8077   3.685   2.479   0.447 -0.3536 -0.1686 -0.1502
 2693SOL    HW1 8078   3.714   2.498   0.358 -0.0182  0.8521  0.1737
 2693SOL    HW2 8079   3.647   2.560   0.479  1.0884  0.0106  1.2482
 2694SOL     OW 8080   3.230   2.274   3.435 -0.6484 -0.0487 -0.2788
 2694SOL    HW1 8081   3.143   2.236   3.421  0.4245 -3.2203  0.8081
 2694SOL    HW2 8082   3.291   2.202   3.417  1.6905  1.5705  0.6251
 2695SOL     OW 8083   0.437   3.190   4.313  0.2561 -0.0078 -0.2990
 2695SOL    HW1 8084   0.398   3.230   4.236  0.9712  0.8229 -0.2492
 2695SOL    HW2 8085   0.366   3.187   4.377 -0.3405 -0.6900 -0.9665
 2696SOL     OW 8086   1.483   4.066   2.793 -0.1403  0.6370  0.5572
 2696SOL    HW1 8087   1.419   4.046   2.724 -0.2699 -0.3664  0.9474
 2696SOL    HW2 8088   1.440   4.131   2.848 -1.7540 -1.5313  2.0328
 2697SOL     OW 8089   0.742   3.269   2.943  0.0768 -0.2194 -0.1062
 2697SOL    HW1 8090   0.674   3.285   2.877  0.7424 -1.4067 -1.1296
 2697SOL    HW2 8091   0.734   3.175   2.963  0.6553 -0.1238  0.6363
 2698SOL     OW 8092   2.072   1.491   1.303 -0.4448 -0.0328  0.4466
 2698SOL    HW1 8093   2.058   1.410   1.353 -0.7485 -1.0751 -1.2614
 2698SOL    HW2 8094   2.167   1.502   1.300 -0.4276  0.1655  1.4183
 2699SOL     OW 8095   1.884   2.455   4.497  0.1980  0.0068  0.0568
 2699SOL    HW1 8096   1.888   2.545   4.529 -0.5063  0.1416 -0.2185
 2699SOL    HW2 8097   1.952   2.451   4.431  0.1130  0.3919 -0.0595
 2700SOL     OW 8098   4.434   4.444   1.783 -0.3828  0.2236 -0.2670
 2700SOL    HW1 8099   4.512   4.475   1.737 -0.2897 -0.6862 -0.7580
 2700SOL    HW2 8100   4.459   4.442   1.875  0.1654 -0.0135 -0.4184
 2701SOL     OW 8101   4.187   0.052   1.673 -0.3987  0.1388  0.4968
 2701SOL    HW1 8102   4.183   0.137   1.717  0.7799  0.9475 -0.8848
 2701SOL    HW2 8103   4.253   0.003   1.721 -0.6237  0.2209  0.8992
 2702SOL     OW 8104   1.820   3.399   3.652 -0.3333  0.2355 -0.2781
 2702SOL    HW1 8105   1.830   3.473   3.711 -0.7961 -1.1142  1.5834
 2702SOL    HW2 8106   1.857   3.325   3.699 -1.6867 -1.1084 -1.2202
 2703SOL     OW 8107   0.014   4.421   4.269 -0.0254  0.0567  0.1674
 2703SOL    HW1 8108   0.108   4.432   4.259 -0.0161  0.0653  0.2651
 2703SOL    HW2 8109  -0.019   4.509   4.286 -0.2843  0.3514 -1.7264
 2704SOL     OW 8110   4.010   3.959   3.143 -0.5199  0.0165 -0.4982
 2704SOL    HW1 8111   4.033   4.052   3.141  0.1051 -0.1324 -0.3283
 2704SOL    HW2 8112   3.964   3.949   3.227 -0.7997  0.2220 -0.6270
 2705SOL     OW 8113   4.279   0.228   2.933 -0.2948 -0.1626  0.7725
 2705SOL    HW1 8114   4.201   0.217   2.878 -0.3240  0.6994  0.6305
 2705SOL    HW2 8115   4.315   0.139   2.941 -0.8997 -0.4635  0.2609
 2706SOL     OW 8116   3.741   2.269   2.410 -0.4206  0.2335 -0.1190
 2706SOL    HW1 8117   3.794   2.343   2.439  2.5491 -1.4854 -0.7493
 2706SOL    HW2 8118   3.690   2.245   2.488 -0.7048  2.2545  0.3788
 2707SOL     OW 8119   0.384   1.895   1.568 -0.4472  0.3090  0.1515
 2707SOL    HW1 8120   0.295   1.928   1.583  0.2883  2.3201  0.5138
 2707SOL    HW2 8121   0.440   1.963   1.605  1.2450 -1.6742  1.4286
 2708SOL     OW 8122   4.193   0.268   1.812 -0.7958 -0.1713 -0.5811
 2708SOL    HW1 8123   4.122   0.255   1.875 -0.6905  1.8080  0.0187
 2708SOL    HW2 8124   4.273   0.246   1.860 -0.7972  0.3287 -0.3460
 2709SOL     OW 8125   4.459   0.200   4.263  0.5174  0.0947 -0.0263
 2709SOL    HW1 8126   4.552   0.220   4.275  0.9117 -1.6481  0.1335
 2709SOL    HW2 8127   4.422   0.205   4.351  0.5789  0.2058 -0.0062
 2710SOL     OW 8128   0.956   0.218   3.312 -0.0619 -0.0608  0.5692
 2710SOL    HW1 8129   1.000   0.142   3.351  2.9236  1.3901  0.2933
 2710SOL    HW2 8130   0.954   0.283   3.383 -1.3769  0.0906  0.4130
 2711SOL     OW 8131   3.968   2.522   0.273  0.1623  0.2060  0.1603
 2711SOL    HW1 8132   4.045   2.561   0.233  0.1130 -0.1891 -0.3307
 2711SOL    HW2 8133   3.924   2.476   0.202  0.9586 -1.9497  0.9870
 2712SOL     OW 8134   2.735   1.413   0.520 -0.2123  0.4342 -0.4506
 2712SOL    HW1 8135   2.741   1.505   0.496  0.2879  0.8269  1.0422
 2712SOL    HW2 8136   2.819   1.394   0.562 -0.9421 -0.2168  0.7652
 2713SOL     OW 8137   1.911   3.570   1.411 -0.0188  0.4962 -0.4618
 2713SOL    HW1 8138   1.873   3.647   1.369  2.0538  0.0226 -3.6384
 2713SOL    HW2 8139   1.867   3.496   1.370 -0.3017 -0.0439  0.7718
 2714SOL     OW 8140   2.875   3.966   2.735  0.1012 -0.4615  0.4085
 2714SOL    HW1 8141   2.835   3.890   2.693 -0.9175 -0.6229  1.6293
 2714SOL    HW2 8142   2.804   4.031   2.739  0.7145  0.2348  0.1868
 2715SOL     OW 8143   0.742   2.719   1.116  0.0707  0.0459  0.4645
 2715SOL    HW1 8144   0.711   2.777   1.185  0.2268 -0.1952  0.7372
 2715SOL    HW2 8145   0.758   2.777   1.042 -0.8495  0.2079  0.3691
 2716SOL     OW 8146   0.027   3.223   0.731  0.0392  0.4207 -0.2872
 2716SOL    HW1 8147   0.056   3.313   0.715 -0.5494  0.7293  0.3073
 2716SOL    HW2 8148  -0.046   3.232   0.792 -0.6031 -0.4022 -0.9021
 2717SOL     OW 8149   0.365   0.326   1.466  0.1067 -0.1400 -0.5911
 2717SOL    HW1 8150   0.364   0.414   1.427  0.2585 -0.9833 -2.6575
 2717SOL    HW2 8151   0.290   0.282   1.426 -1.6705 -0.1915  2.4924
 2718SOL     OW 8152   3.392   3.128   3.974  0.0699 -0.6682  1.1424
 2718SOL    HW1 8153   3.355   3.106   4.059  1.0834  0.0636  1.7911
 2718SOL    HW2 8154   3.410   3.222   3.978  1.8030 -0.9583  0.7937
 2719SOL     OW 8155   1.257   3.173   0.451  0.5308  0.0994  0.1277
 2719SOL    HW1 8156   1.266   3.084   0.485  0.1421  0.6367  1.7404
 2719SOL    HW2 8157   1.320   3.177   0.379 -0.4489 -1.8963 -0.9284
 2720SOL     OW 8158   1.042   1.055   2.166  0.3573  0.6228 -0.1019
 2720SOL    HW1 8159   1.009   0.970   2.194  2.6074 -0.8437 -1.6272
 2720SOL    HW2 8160   0.970   1.093   2.115 -1.0120  0.1090  1.3386
 2721SOL     OW 8161   0.231   1.982   1.882 -0.1266 -0.1574 -0.6976
 2721SOL    HW1 8162   0.184   2.064   1.896 -0.8074 -0.6367 -0.0627
 2721SOL    HW2 8163   0.163   1.915   1.878  0.4525 -0.7773 -0.5143
 2722SOL     OW 8164   1.661   2.356   2.866 -0.3919  0.2613  0.0771
 2722SOL    HW1 8165   1.738   2.398   2.830 -0.3184  0.0077 -0.0665
 2722SOL    HW2 8166   1.695   2.297   2.933 -0.5438  0.8902  0.7249
 2723SOL     OW 8167   1.933   0.939   4.165 -0.2326  0.4934 -0.3273
 2723SOL    HW1 8168   1.921   0.993   4.243 -4.1319  1.2719 -1.2248
 2723SOL    HW2 8169   1.975   0.997   4.101 -0.2425  0.9926  0.1155
 2724SOL     OW 8170   2.795   2.053   1.796 -0.6151 -0.0211 -0.4943
 2724SOL    HW1 8171   2.703   2.060   1.768 -0.9323  1.9803  0.8270
 2724SOL    HW2 8172   2.835   2.134   1.765  0.8681 -1.0546 -1.4217
 2725SOL     OW 8173   0.310   2.993   2.113 -0.2673  0.4654  0.0082
 2725SOL    HW1 8174   0.284   3.039   2.033 -0.1100  0.5845  0.0264
 2725SOL    HW2 8175   0.314   2.901   2.086 -2.5716  0.1708  0.4564
 2726SOL     OW 8176   3.423   1.101   4.160 -0.5763  0.1501  0.4063
 2726SOL    HW1 8177   3.518   1.109   4.165 -0.0381 -0.2989 -4.3252
 2726SOL    HW2 8178   3.407   1.007   4.152 -1.8191 -0.0284  3.4907
 2727SOL     OW 8179   2.716   3.611   1.871  0.0195 -0.0989  0.8270
 2727SOL    HW1 8180   2.643   3.672   1.880 -0.4986 -0.8740  2.2241
 2727SOL    HW2 8181   2.784   3.661   1.827 -0.9069  1.0322  0.6364
 2728SOL     OW 8182   1.781   2.713   1.221 -0.1733 -0.2041  0.1974
 2728SOL    HW1 8183   1.846   2.694   1.288 -0.9219 -1.2054  0.6684
 2728SOL    HW2 8184   1.825   2.772   1.160  0.6394  0.4151  1.3620
 2729SOL     OW 8185   3.127   4.320   0.351  0.3533 -0.4550  0.3107
 2729SOL    HW1 8186   3.173   4.238   0.365 -0.2731 -0.6434  1.3698
 2729SOL    HW2 8187   3.098   4.316   0.259 -0.3956 -1.8008  0.5898
 2730SOL     OW 8188   2.658   1.720   1.514 -0.1520  0.3878 -0.4742
 2730SOL    HW1 8189   2.752   1.735   1.523  0.0863 -0.4324 -1.4287
 2730SOL    HW2 8190   2.641   1.643   1.569 -0.4048  0.9568  0.2570
 2731SOL     OW 8191   0.554   2.635   3.349  0.0150 -0.1799  0.3390
 2731SOL    HW1 8192   0.509   2.551   3.341  0.4435 -0.3858  0.1042
 2731SOL    HW2 8193   0.622   2.620   3.415  2.7035 -1.1653 -2.4447
 2732SOL     OW 8194   2.247   2.549   2.597 -0.6001  0.1526 -0.5365
 2732SOL    HW1 8195   2.232   2.643   2.588 -1.9205  0.0135  0.1229
 2732SOL    HW2 8196   2.241   2.515   2.507 -1.4835  0.5081 -0.6150
 2733SOL     OW 8197   3.729   2.401   0.155 -0.2330  0.1100 -0.4343
 2733SOL    HW1 8198   3.758   2.327   0.209 -0.8238  1.5295  1.9660
 2733SOL    HW2 8199   3.634   2.390   0.150 -0.4609  1.2425  0.8764
 2734SOL     OW 8200   0.070   4.365   3.907  0.4599  0.9846  0.2852
 2734SOL    HW1 8201   0.080   4.281   3.861 -1.4198  0.0212  1.5151
 2734SOL    HW2 8202  -0.016   4.397   3.881 -0.8277  0.2553  3.1923
 2735SOL     OW 8203   3.201   3.639   1.904  0.0936 -0.5895 -0.0109
 2735SOL    HW1 8204   3.155   3.639   1.820  0.2869 -1.3736 -0.1295
 2735SOL    HW2 8205   3.290   3.666   1.882  0.1780 -0.9197 -0.0842
 2736SOL     OW 8206   3.940   3.452   1.259 -0.7762 -0.0294 -0.2134
 2736SOL    HW1 8207   3.979   3.532   1.225 -1.4486 -0.0758 -1.1612
 2736SOL    HW2 8208   4.009   3.411   1.312 -0.3128  0.9850 -0.0206
 2737SOL     OW 8209   1.713   1.352   2.145  0.0247  0.2705 -0.3924
 2737SOL    HW1 8210   1.640   1.294   2.167 -0.0901  0.0696 -1.2415
 2737SOL    HW2 8211   1.711   1.421   2.211 -0.6266 -0.0048 -0.1194
 2738SOL     OW 8212   0.987   3.526   2.934  0.1922  0.0518 -0.4290
 2738SOL    HW1 8213   0.894   3.515   2.912  0.2774 -1.7990 -0.0742
 2738SOL    HW2 8214   1.033   3.469   2.872  0.7753 -1.7007  1.5056
 2739SOL     OW 8215   4.305   1.430   1.583  0.0437  0.4007 -0.3038
 2739SOL    HW1 8216   4.231   1.400   1.636 -1.2655  2.3634 -0.9276
 2739SOL    HW2 8217   4.345   1.500   1.635  1.8500 -0.9615  0.2563
 2740SOL     OW 8218   2.070   0.154   0.775 -0.1897  0.4951  0.1727
 2740SOL    HW1 8219   2.084   0.093   0.703  1.7245 -0.0774  0.9744
 2740SOL    HW2 8220   1.998   0.116   0.825  0.2988 -0.5818  0.0851
 2741SOL     OW 8221   1.677   3.963   0.922  0.5845  0.4601  0.2239
 2741SOL    HW1 8222   1.721   4.004   0.997  1.0779  0.7245 -0.2045
 2741SOL    HW2 8223   1.684   3.869   0.939  0.0472  0.5291  0.8714
 2742SOL     OW 8224   2.050   2.964   0.140  0.3448  0.3593  0.3668
 2742SOL    HW1 8225   2.014   3.026   0.203  1.9244  2.4142 -0.6370
 2742SOL    HW2 8226   2.114   3.015   0.091  2.0954 -2.2399 -0.1912
 2743SOL     OW 8227   2.739   2.851   1.592 -0.4242  0.5784 -0.3185
 2743SOL    HW1 8228   2.726   2.895   1.676 -1.7062 -2.3644  1.1714
 2743SOL    HW2 8229   2.763   2.761   1.615  2.4901  0.4426 -3.1581
 2744SOL     OW 8230   0.674   3.757   2.619  0.0445 -0.2109 -0.4193
 2744SOL    HW1 8231   0.633   3.707   2.690 -0.0825  0.1468 -0.2365
 2744SOL    HW2 8232   0.613   3.828   2.601  0.6734  0.4491  0.0029
 2745SOL     OW 8233   0.540   3.174   3.957  0.2127 -0.3936  0.7295
 2745SOL    HW1 8234   0.448   3.164   3.932 -0.4785  1.4284  2.2706
 2745SOL    HW2 8235   0.589   3.135   3.886 -1.6916  0.9126 -1.4303
 2746SOL     OW 8236   2.638   4.134   3.720 -0.2296 -0.4854  0.0850
 2746SOL    HW1 8237   2.645   4.223   3.686  1.3338  0.0667  1.7209
 2746SOL    HW2 8238   2.719   4.120   3.770 -0.0280 -3.1456 -0.8302
 2747SOL     OW 8239   1.619   0.779   1.177  0.4483 -0.2061 -0.2080
 2747SOL    HW1 8240   1.580   0.815   1.098  0.0402  1.7645  0.8323
 2747SOL    HW2 8241   1.545   0.756   1.233  0.7432 -0.5812  0.0354
 2748SOL     OW 8242   1.911   4.470   1.296 -0.5640  0.2553  0.4235
 2748SOL    HW1 8243   1.938   4.422   1.374  0.9395  0.2810 -0.0367
 2748SOL    HW2 8244   1.822   4.499   1.314 -0.0390  0.7908  2.3985
 2749SOL     OW 8245   0.527   3.574   0.110  0.3306 -0.0542  0.3587
 2749SOL    HW1 8246   0.448   3.528   0.082  0.4147  1.0275 -1.8844
 2749SOL    HW2 8247   0.596   3.508   0.103 -0.0126 -0.3924  0.0754
 2750SOL     OW 8248   2.664   2.586   3.697  0.3418 -0.4097 -0.1869
 2750SOL    HW1 8249   2.618   2.617   3.619 -0.7599 -0.6882  0.3472
 2750SOL    HW2 8250   2.754   2.573   3.667  0.0241 -0.1375 -1.3116
 2751SOL     OW 8251   3.431   1.588   3.115  0.4745  0.0598  0.2434
 2751SOL    HW1 8252   3.356   1.542   3.076 -0.9002  2.4008 -0.0946
 2751SOL    HW2 8253   3.480   1.621   3.040 -1.0411  2.8137  0.3062
 2752SOL     OW 8254   0.338   0.115   1.870 -0.3739  0.5043 -0.5487
 2752SOL    HW1 8255   0.308   0.145   1.956 -0.0840 -0.1348 -0.2187
 2752SOL    HW2 8256   0.418   0.166   1.854 -0.7522  1.0528 -0.7121
 2753SOL     OW 8257   0.531   1.370   1.691 -0.5403 -0.1456 -0.0536
 2753SOL    HW1 8258   0.514   1.459   1.660 -0.8256 -0.5084 -0.9872
 2753SOL    HW2 8259   0.507   1.372   1.783 -1.4072  0.5305 -0.2763
 2754SOL     OW 8260   1.447   3.132   3.279 -0.3202 -0.3631 -0.5015
 2754SOL    HW1 8261   1.534   3.164   3.255 -1.2144  1.7026 -1.3129
 2754SOL    HW2 8262   1.420   3.077   3.206 -0.2811  0.2561 -0.9928
 2755SOL     OW 8263   1.534   3.674   3.585 -0.3110 -0.3515 -0.5925
 2755SOL    HW1 8264   1.591   3.711   3.518 -1.7299  1.0235 -1.0966
 2755SOL    HW2 8265   1.561   3.716   3.666 -0.1200 -0.2549 -0.7067
 2756SOL     OW 8266   3.076   0.338   2.515 -0.0252  0.2090  0.1057
 2756SOL    HW1 8267   3.017   0.277   2.560 -0.6698  0.4711 -0.3740
 2756SOL    HW2 8268   3.034   0.354   2.430  1.1753 -0.2904 -0.6185
 2757SOL     OW 8269   3.395   1.733   3.507  0.1239  0.3741  0.5929
 2757SOL    HW1 8270   3.420   1.642   3.492 -1.3654  0.0287 -0.0159
 2757SOL    HW2 8271   3.378   1.769   3.420  1.1526  1.3916  0.7901
 2758SOL     OW 8272   0.710   1.336   0.244 -0.1821 -0.4152  0.6217
 2758SOL    HW1 8273   0.622   1.364   0.267 -0.4654 -0.0237 -0.8555
 2758SOL    HW2 8274   0.735   1.275   0.313 -0.3464  1.8516  2.8471
 2759SOL     OW 8275   2.249   3.276   3.349 -0.5032 -0.6832  0.6024
 2759SOL    HW1 8276   2.197   3.203   3.384 -1.2682 -0.9251 -0.9601
 2759SOL    HW2 8277   2.185   3.335   3.311  0.1735  0.4947  1.2389
 2760SOL     OW 8278   1.307   2.915   0.544  0.5916 -0.3699  0.2333
 2760SOL    HW1 8279   1.367   2.843   0.522  1.8256  0.3290  1.1874
 2760SOL    HW2 8280   1.223   2.872   0.560  0.7608 -1.3621 -1.2821
 2761SOL     OW 8281   0.817   3.747   4.289  0.0445 -0.3876  0.3283
 2761SOL    HW1 8282   0.818   3.660   4.250  0.9271 -1.2398  2.1130
 2761SOL    HW2 8283   0.824   3.731   4.383 -0.9327  1.5840  0.7848
 2762SOL     OW 8284   1.605   0.212   1.169 -0.0162  0.2640  0.1716
 2762SOL    HW1 8285   1.574   0.170   1.249  0.3239  1.0364  0.7226
 2762SOL    HW2 8286   1.551   0.175   1.099  0.5014 -1.3385  0.5797
 2763SOL     OW 8287   0.357   2.677   2.938 -0.4282 -0.1137 -0.6092
 2763SOL    HW1 8288   0.338   2.593   2.897 -1.0948 -0.0376 -0.4730
 2763SOL    HW2 8289   0.436   2.662   2.990 -0.4798 -0.6253 -0.6746
 2764SOL     OW 8290   3.010   1.989   2.850 -0.0164 -0.1309 -0.2083
 2764SOL    HW1 8291   3.050   1.917   2.801  0.5953  0.4990 -0.6508
 2764SOL    HW2 8292   2.954   2.034   2.786  1.2421  1.0508 -0.5184
 2765SOL     OW 8293   4.023   0.223   0.468  0.1403  0.1974  0.0333
 2765SOL    HW1 8294   3.957   0.279   0.427 -0.8352  0.4769  1.8381
 2765SOL    HW2 8295   3.991   0.134   0.454 -1.3051  0.3683  1.8526
 2766SOL     OW 8296   3.242   2.544   1.698 -0.3895 -0.2608  0.0466
 2766SOL    HW1 8297   3.324   2.511   1.662 -0.0781 -0.5329  0.9604
 2766SOL    HW2 8298   3.252   2.639   1.698  0.6586 -0.3207  1.7100
 2767SOL     OW 8299   3.154   2.558   3.236 -0.3650 -0.8003  0.0082
 2767SOL    HW1 8300   3.107   2.498   3.177 -1.3129  1.5536 -1.8212
 2767SOL    HW2 8301   3.095   2.568   3.311 -0.6790 -1.3183 -0.1600
 2768SOL     OW 8302   0.616   2.794   2.192  0.2718  0.3404  0.3707
 2768SOL    HW1 8303   0.535   2.826   2.233 -1.9525 -3.1264 -0.8964
 2768SOL    HW2 8304   0.613   2.829   2.103 -0.5375 -0.7751 -0.0580
 2769SOL     OW 8305   0.420   1.151   3.717  0.9002 -0.1886  0.2870
 2769SOL    HW1 8306   0.450   1.136   3.627 -0.8812 -0.4927 -0.3050
 2769SOL    HW2 8307   0.440   1.243   3.734  1.1732 -0.1048 -0.4539
 2770SOL     OW 8308   1.230   0.099   3.777  0.6171  0.2581  0.5908
 2770SOL    HW1 8309   1.304   0.108   3.717 -1.0056  0.8489 -1.4310
 2770SOL    HW2 8310   1.178   0.028   3.739  0.1588 -0.1805  2.0040
 2771SOL     OW 8311   4.466   1.276   4.046  0.0122  0.0397  0.1106
 2771SOL    HW1 8312   4.500   1.254   4.133  0.9774  1.8848  0.2509
 2771SOL    HW2 8313   4.381   1.316   4.063 -0.7938 -1.5708  0.0101
 2772SOL     OW 8314   1.738   3.377   1.290  0.4023  0.2657  0.5075
 2772SOL    HW1 8315   1.699   3.414   1.211 -1.5393  0.6343  1.5701
 2772SOL    HW2 8316   1.729   3.283   1.280 -2.4644  0.3393  1.4303
 2773SOL     OW 8317   0.705   0.420   0.217 -0.1119  0.3270  0.3895
 2773SOL    HW1 8318   0.664   0.438   0.132 -0.1260 -0.1075  0.3024
 2773SOL    HW2 8319   0.687   0.328   0.233 -0.0507  0.3915  0.8377
 2774SOL     OW 8320   0.122   2.846   2.936  0.0147  0.0871  0.5893
 2774SOL    HW1 8321   0.073   2.798   2.869  0.9354  2.8934 -2.3080
 2774SOL    HW2 8322   0.201   2.793   2.950  0.5571  0.1576 -1.7837
 2775SOL     OW 8323   0.873   1.804   2.036  0.1128 -0.3736  0.4547
 2775SOL    HW1 8324   0.819   1.855   2.096  0.8729 -0.1940  0.9956
 2775SOL    HW2 8325   0.950   1.779   2.087  0.2027 -1.2542 -0.0854
 2776SOL     OW 8326   4.297   1.829   0.011  1.3029  0.2864 -0.4366
 2776SOL    HW1 8327   4.252   1.910   0.033  0.7241 -0.3697  0.8838
 2776SOL    HW2 8328   4.227   1.765  -0.001  1.6295  0.2865 -3.1590
 2777SOL     OW 8329   1.102   0.286   1.986 -0.4581  0.6250  0.0034
 2777SOL    HW1 8330   1.050   0.206   1.990  0.6278 -0.2036 -1.3467
 2777SOL    HW2 8331   1.184   0.263   2.030 -0.4218  1.2394  0.2592
 2778SOL     OW 8332   2.428   2.265   2.825 -0.0987 -0.1302  0.0762
 2778SOL    HW1 8333   2.491   2.261   2.753 -1.5679 -0.7680 -1.2211
 2778SOL    HW2 8334   2.445   2.350   2.866  1.7194 -0.3596 -0.0884
 2779SOL     OW 8335   0.315   3.340   3.379 -0.6481 -0.2334 -0.0797
 2779SOL    HW1 8336   0.322   3.411   3.315 -0.6532  1.1743  1.4027
 2779SOL    HW2 8337   0.222   3.337   3.402 -0.6728 -0.8384 -0.2402
 2780SOL     OW 8338   1.239   4.067   3.197  0.3585  0.1978  0.5609
 2780SOL    HW1 8339   1.157   4.114   3.181  0.6728  0.2540 -0.9507
 2780SOL    HW2 8340   1.305   4.116   3.149  0.7691 -1.5405 -0.7203
 2781SOL     OW 8341   4.401   0.882   2.439 -0.3764 -0.3584 -0.0580
 2781SOL    HW1 8342   4.364   0.795   2.423 -0.9628 -0.3831  1.3111
 2781SOL    HW2 8343   4.325   0.940   2.435  0.0649  0.1728 -1.3576
 2782SOL     OW 8344   2.781   3.717   0.231  0.1494  0.2960  0.8093
 2782SOL    HW1 8345   2.752   3.646   0.172  0.1757 -1.1646  2.4873
 2782SOL    HW2 8346   2.830   3.673   0.300  0.2450  1.9758  1.8684
 2783SOL     OW 8347   2.410   1.837   0.286  0.3152 -0.2831  0.0690
 2783SOL    HW1 8348   2.473   1.908   0.297  1.5674 -1.0824 -1.4117
 2783SOL    HW2 8349   2.403   1.798   0.373 -0.2194  1.4572  0.8560
 2784SOL     OW 8350   3.515   0.055   2.154 -0.2240 -0.0943 -0.1689
 2784SOL    HW1 8351   3.534   0.046   2.061  1.2380 -0.3564  0.1154
 2784SOL    HW2 8352   3.448  -0.010   2.172 -0.4619 -0.0929 -1.0184
 2785SOL     OW 8353   0.596   3.378   3.464  0.3352  0.1986  0.2428
 2785SOL    HW1 8354   0.510   3.339   3.479 -0.4968  1.8875  0.0807
 2785SOL    HW2 8355   0.633   3.327   3.391 -1.7560  1.1823 -1.6434
 2786SOL     OW 8356   3.049   3.488   4.214  0.7006  0.4880 -0.2042
 2786SOL    HW1 8357   3.100   3.477   4.295  0.9311  1.3361 -0.2242
 2786SOL    HW2 8358   2.961   3.459   4.237  0.9838 -0.1828  0.0734
 2787SOL     OW 8359   1.133   1.492   4.181  0.1745  0.5597 -0.4067
 2787SOL    HW1 8360   1.102   1.531   4.099 -2.3605 -1.7058 -0.6954
 2787SOL    HW2 8361   1.084   1.538   4.249 -0.3687  0.1009 -0.4802
 2788SOL     OW 8362   0.381   2.657   0.239  0.1751 -0.2528 -0.0205
 2788SOL    HW1 8363   0.378   2.752   0.254 -0.1997 -0.4750  1.4271
 2788SOL    HW2 8364   0.294   2.626   0.265 -0.2139 -0.8350 -1.8747
 2789SOL     OW 8365   0.206   0.304   4.296 -0.6782  0.3767  0.1330
 2789SOL    HW1 8366   0.245   0.327   4.381  0.7177 -1.0817 -0.0841
 2789SOL    HW2 8367   0.261   0.348   4.232  0.5854 -1.5634 -0.1678
 2790SOL     OW 8368   3.846   3.952   3.966  0.6880  0.2585  0.0073
 2790SOL    HW1 8369   3.903   3.888   3.924 -1.8811 -0.7892 -2.1395
 2790SOL    HW2 8370   3.877   4.037   3.934 -0.0737 -0.4014 -2.7410
 2791SOL     OW 8371   0.838   2.303   3.252 -0.8186  0.0181 -1.0474
 2791SOL    HW1 8372   0.872   2.223   3.211 -1.5745 -1.0095  0.2387
 2791SOL    HW2 8373   0.753   2.317   3.211 -0.8509 -0.0635 -1.0095
 2792SOL     OW 8374   1.447   3.035   3.578  0.2591  0.2986 -0.3874
 2792SOL    HW1 8375   1.486   2.954   3.547 -1.5698 -0.8154  0.0908
 2792SOL    HW2 8376   1.412   3.077   3.499  0.6972  0.3462 -0.5576
 2793SOL     OW 8377   0.540   3.141   1.845 -0.1803 -0.4187  0.2125
 2793SOL    HW1 8378   0.486   3.069   1.880  1.0145 -2.0919 -1.1949
 2793SOL    HW2 8379   0.624   3.100   1.826  0.6971  1.5002 -0.2020
 2794SOL     OW 8380   1.315   1.890   0.194 -0.5611 -0.8922 -0.8353
 2794SOL    HW1 8381   1.221   1.891   0.211 -0.8728  0.4753 -2.3719
 2794SOL    HW2 8382   1.351   1.956   0.254 -0.5690 -1.3890 -0.2734
 2795SOL     OW 8383   1.976   0.163   4.114 -0.2610  0.9932  0.1249
 2795SOL    HW1 8384   2.044   0.231   4.111  1.3547 -0.5705 -0.6576
 2795SOL    HW2 8385   1.983   0.119   4.030 -0.4831 -0.8454  1.0266
 2796SOL     OW 8386   1.817   0.758   3.042 -0.4556 -0.3102 -0.0148
 2796SOL    HW1 8387   1.908   0.729   3.049 -0.7990 -1.8204 -1.2765
 2796SOL    HW2 8388   1.770   0.706   3.107 -0.3764  0.7811  0.9416
 2797SOL     OW 8389   4.361   4.054   1.442  0.7496  1.0975 -0.0713
 2797SOL    HW1 8390   4.325   4.116   1.506  1.9180  2.2168 -0.4388
 2797SOL    HW2 8391   4.347   4.097   1.358 -1.1708 -0.5558 -0.6840
 2798SOL     OW 8392   0.881   2.965   4.179 -0.0195 -0.2442  0.1382
 2798SOL    HW1 8393   0.806   3.022   4.194  0.3445  1.4305 -3.3437
 2798SOL    HW2 8394   0.849   2.900   4.116  1.1908  0.0220 -0.7928
 2799SOL     OW 8395   3.891   1.807   2.051  0.5782 -0.0565  0.1156
 2799SOL    HW1 8396   3.801   1.836   2.067  0.5908  0.3033 -0.4345
 2799SOL    HW2 8397   3.881   1.730   1.994  0.5430 -1.1778  1.5773
 2800SOL     OW 8398   3.317   3.920   1.573 -0.1489  0.5727 -0.0614
 2800SOL    HW1 8399   3.311   3.966   1.489  0.2919  1.7895  0.5470
 2800SOL    HW2 8400   3.410   3.921   1.594 -0.2919  0.5503  0.5936
 2801SOL     OW 8401   2.451   2.842   0.600 -0.0025  0.2706 -0.0162
 2801SOL    HW1 8402   2.499   2.786   0.539  0.3727  0.4027  0.1557
 2801SOL    HW2 8403   2.510   2.853   0.674 -0.0444  0.9541 -0.0776
 2802SOL     OW 8404   2.828   2.457   3.903  0.0341 -0.3299 -0.4642
 2802SOL    HW1 8405   2.789   2.377   3.868 -0.2557 -0.2637 -0.2994
 2802SOL    HW2 8406   2.821   2.448   3.998  0.9071 -0.5506 -0.4210
 2803SOL     OW 8407   3.697   2.587   4.187  0.1229 -0.6313 -0.2138
 2803SOL    HW1 8408   3.614   2.565   4.229  0.3589 -1.5629 -0.2024
 2803SOL    HW2 8409   3.673   2.623   4.102 -0.2828 -1.7925 -0.6065
 2804SOL     OW 8410   2.379   0.293   3.492  0.6586 -0.0901 -0.1544
 2804SOL    HW1 8411   2.432   0.347   3.433 -1.0171  0.5894 -1.1028
 2804SOL    HW2 8412   2.384   0.205   3.455  0.5233  0.1203 -0.6860
 2805SOL     OW 8413   3.832   4.083   2.787 -0.1022 -0.0352  0.0585
 2805SOL    HW1 8414   3.832   4.057   2.694  0.8084 -0.2911  0.1166
 2805SOL    HW2 8415   3.925   4.085   2.811 -0.3529 -0.5295  1.1237
 2806SOL     OW 8416   3.471   2.785   0.987  0.0176 -0.2583 -0.5732
 2806SOL    HW1 8417   3.451   2.806   0.896  1.0347  0.3748 -0.6683
 2806SOL    HW2 8418   3.468   2.869   1.033 -1.2894 -0.6703  0.1676
 2807SOL     OW 8419   1.124   2.973   4.494  0.2937  0.0739  0.4536
 2807SOL    HW1 8420   1.208   3.010   4.466  0.5298 -1.5691 -1.2174
 2807SOL    HW2 8421   1.142   2.879   4.503 -1.6054 -0.4983 -1.0778
 2808SOL     OW 8422   3.101   3.701   1.647 -0.5298 -0.1334  0.1735
 2808SOL    HW1 8423   3.019   3.723   1.691 -0.7674  1.0882 -0.8289
 2808SOL    HW2 8424   3.110   3.767   1.579  1.8556  0.4039  0.9424
 2809SOL     OW 8425   3.508   2.220   0.442  0.0901  0.0083  0.4983
 2809SOL    HW1 8426   3.497   2.152   0.507  0.5401 -0.8545 -0.3022
 2809SOL    HW2 8427   3.581   2.273   0.473 -0.7353  0.6127  1.5013
 2810SOL     OW 8428   0.274   3.730   1.863 -0.2079  0.4402 -0.0838
 2810SOL    HW1 8429   0.344   3.786   1.897 -0.3201  0.8393 -0.5009
 2810SOL    HW2 8430   0.210   3.727   1.934  1.1123 -1.5653  1.1054
 2811SOL     OW 8431   2.730   1.924   2.553 -0.1253 -0.1232 -0.1539
 2811SOL    HW1 8432   2.783   1.859   2.507  0.3413 -0.1251  0.3808
 2811SOL    HW2 8433   2.781   2.004   2.548 -0.7430  0.2403 -0.8948
 2812SOL     OW 8434   0.462   0.406   4.154  0.2561 -0.3909 -0.0398
 2812SOL    HW1 8435   0.473   0.382   4.062 -3.0348  1.2056 -0.9905
 2812SOL    HW2 8436   0.493   0.496   4.159  1.0721 -0.6918  0.6301
 2813SOL     OW 8437   1.926   1.776   0.881 -0.3656 -0.8120  0.2058
 2813SOL    HW1 8438   1.979   1.718   0.935  0.1010 -0.5741  0.0143
 2813SOL    HW2 8439   1.837   1.764   0.912 -0.0035 -0.0318  1.6365
 2814SOL     OW 8440   3.374   0.287   2.888 -0.4520  0.3915 -0.0039
 2814SOL    HW1 8441   3.445   0.228   2.862 -0.1255 -0.1389  1.9322
 2814SOL    HW2 8442   3.379   0.289   2.984 -2.8758  0.5665  0.1750
 2815SOL     OW 8443   3.395   1.964   2.998  0.1980  0.4221 -0.0160
 2815SOL    HW1 8444   3.359   1.895   2.942  0.2759  0.4135 -0.0553
 2815SOL    HW2 8445   3.342   2.041   2.978 -0.4660  0.1553  0.6656
 2816SOL     OW 8446   1.490   4.050   1.526  0.0581 -0.0414  0.0521
 2816SOL    HW1 8447   1.542   3.990   1.473 -0.0834  0.4728 -0.6907
 2816SOL    HW2 8448   1.402   4.044   1.490 -0.1818 -0.1536  0.6433
 2817SOL     OW 8449   3.118   0.923   1.032 -0.3462  0.2859 -0.1214
 2817SOL    HW1 8450   3.173   0.884   0.964  1.7352  0.2836  1.4646
 2817SOL    HW2 8451   3.081   0.848   1.079 -0.3368  0.2749 -0.1316
 2818SOL     OW 8452   2.316   3.610   0.417 -0.2729  0.2264 -0.2278
 2818SOL    HW1 8453   2.298   3.593   0.510  0.5342 -1.4570 -0.3458
 2818SOL    HW2 8454   2.279   3.696   0.401 -2.6849 -0.4796  1.0502
 2819SOL     OW 8455   0.560   0.280   1.873  0.1111  0.4156 -0.2740
 2819SOL    HW1 8456   0.651   0.297   1.851  0.3684  0.7077  0.9802
 2819SOL    HW2 8457   0.522   0.367   1.888 -0.0741  0.2310  0.3416
 2820SOL     OW 8458   2.769   2.681   3.269  0.0526 -0.2618 -0.2412
 2820SOL    HW1 8459   2.816   2.763   3.250  0.3716 -0.4596 -0.3138
 2820SOL    HW2 8460   2.751   2.644   3.183  3.1508 -2.1010 -0.2398
 2821SOL     OW 8461   3.523   2.201  -0.016  0.2021  0.6632 -0.2153
 2821SOL    HW1 8462   3.490   2.248   0.061  3.5928 -0.4663  2.1454
 2821SOL    HW2 8463   3.451   2.142  -0.040 -1.1421  1.3613  1.8251
 2822SOL     OW 8464   2.465   1.926   3.173 -0.4440 -0.1653 -0.0387
 2822SOL    HW1 8465   2.392   1.983   3.196 -0.3901 -0.7120  1.5732
 2822SOL    HW2 8466   2.422   1.850   3.132 -0.9518 -1.1002  2.1065
 2823SOL     OW 8467   0.075   1.460   2.012 -0.4968 -0.5173  0.7078
 2823SOL    HW1 8468   0.023   1.537   2.036 -1.0602 -0.2874 -1.0874
 2823SOL    HW2 8469   0.116   1.432   2.094  0.3810  2.1635  1.2994
 2824SOL     OW 8470   2.799   3.480   3.912 -0.4663 -0.5706  0.3966
 2824SOL    HW1 8471   2.841   3.418   3.853 -0.0842 -0.3689  0.4578
 2824SOL    HW2 8472   2.818   3.446   4.000  0.2166 -0.0649  0.4496
 2825SOL     OW 8473   2.583   2.709   3.455 -0.2656  0.8728 -0.4944
 2825SOL    HW1 8474   2.575   2.799   3.424  1.0866  1.0220 -0.5040
 2825SOL    HW2 8475   2.654   2.672   3.403  1.3836  0.8093  1.6330
 2826SOL     OW 8476   0.501   1.999   4.420 -0.0563  0.4161  0.1848
 2826SOL    HW1 8477   0.513   2.051   4.340 -0.3275  2.2090  1.2541
 2826SOL    HW2 8478   0.408   2.008   4.440 -0.4156 -1.6857 -0.3479
 2827SOL     OW 8479   3.037   3.422   3.475  0.3617  0.2281 -0.4272
 2827SOL    HW1 8480   3.125   3.435   3.438  0.5187 -0.2901 -0.2506
 2827SOL    HW2 8481   2.990   3.375   3.406 -0.0076  1.1543 -0.8152
 2828SOL     OW 8482   1.126   0.987   1.048  0.8379  0.4007  0.2451
 2828SOL    HW1 8483   1.098   0.951   0.963 -1.0007  1.0785  0.5229
 2828SOL    HW2 8484   1.091   0.925   1.113  0.9534  0.6778  0.5720
 2829SOL     OW 8485   4.082   3.354   0.986  0.2265 -0.5965  0.6312
 2829SOL    HW1 8486   4.121   3.368   1.072 -2.9515  0.5933  2.0183
 2829SOL    HW2 8487   3.988   3.345   1.003 -0.8098  1.5713 -2.8555
 2830SOL     OW 8488   2.554   2.547   1.776  0.1146  0.3832  0.3087
 2830SOL    HW1 8489   2.632   2.559   1.721  0.7479 -0.2636  1.0448
 2830SOL    HW2 8490   2.513   2.634   1.778  1.5772  1.0933  1.0432
 2831SOL     OW 8491   4.335   2.917   0.987 -0.2229 -0.2970  0.6260
 2831SOL    HW1 8492   4.284   2.850   1.032  1.5480 -2.9939 -1.1186
 2831SOL    HW2 8493   4.420   2.917   1.031  0.4158 -0.6173 -0.5482
 2832SOL     OW 8494   3.241   2.189   2.951 -0.2174  0.0524 -0.1750
 2832SOL    HW1 8495   3.297   2.252   2.997  0.4578 -0.1974 -0.6327
 2832SOL    HW2 8496   3.152   2.214   2.975  0.0646  0.7967  0.1411
 2833SOL     OW 8497   3.246   1.134   1.815  0.4919  0.4784  0.1303
 2833SOL    HW1 8498   3.160   1.116   1.854  0.0474  0.0396 -1.0242
 2833SOL    HW2 8499   3.253   1.229   1.814 -0.9349  0.6134 -1.7411
 2834SOL     OW 8500   0.132   1.713   1.105 -0.8500 -0.1704  0.5603
 2834SOL    HW1 8501   0.215   1.674   1.131  0.1137 -1.8537 -4.0159
 2834SOL    HW2 8502   0.069   1.640   1.110 -1.0772 -0.0093  0.1022
 2835SOL     OW 8503   2.609   0.792   4.436 -0.1888  0.0443  0.4717
 2835SOL    HW1 8504   2.585   0.864   4.495  1.5681 -0.4153  1.8281
 2835SOL    HW2 8505   2.640   0.836   4.356 -3.1347  0.6662 -0.4368
 2836SOL     OW 8506   3.632   4.226   3.279  0.7233 -0.2743  0.0137
 2836SOL    HW1 8507   3.582   4.281   3.218  0.8426 -0.7520 -0.5195
 2836SOL    HW2 8508   3.723   4.240   3.254  0.7337 -0.9720 -0.3368
 2837SOL     OW 8509   4.209   1.893   3.146  0.2992 -0.1162  0.6979
 2837SOL    HW1 8510   4.283   1.927   3.197  2.1918  0.1082 -1.9962
 2837SOL    HW2 8511   4.146   1.965   3.145 -0.4049 -0.5501  3.6101
 2838SOL     OW 8512   0.938   3.915   3.153  0.2179  0.1492 -0.2244
 2838SOL    HW1 8513   0.936   4.009   3.172 -1.1746  0.2662 -0.8087
 2838SOL    HW2 8514   0.847   3.887   3.161  0.2842 -0.7291 -1.9809
 2839SOL     OW 8515   3.824   0.439   2.030  0.1917  0.1742  0.0310
 2839SOL    HW1 8516   3.775   0.387   2.093 -0.6373 -2.3728 -2.5057
 2839SOL    HW2 8517   3.915   0.433   2.058  0.0053 -1.9685  0.3342
 2840SOL     OW 8518   4.021   1.092   3.893  0.5621 -0.1920  0.2495
 2840SOL    HW1 8519   3.978   1.016   3.855  2.7592 -0.5402 -1.8080
 2840SOL    HW2 8520   3.951   1.157   3.903 -0.7468 -1.2787 -1.3382
 2841SOL     OW 8521   4.268   3.540   2.472  0.0077  0.3640 -0.0919
 2841SOL    HW1 8522   4.340   3.497   2.426 -0.2473  0.1278 -0.2751
 2841SOL    HW2 8523   4.273   3.632   2.444  0.2818  0.3641 -0.0463
 2842SOL     OW 8524   3.869   2.369   3.453 -0.1306 -0.0995  0.3782
 2842SOL    HW1 8525   3.815   2.430   3.403 -2.0998 -1.3564  0.8733
 2842SOL    HW2 8526   3.921   2.426   3.512 -1.1690  1.1363  0.1457
 2843SOL     OW 8527   2.782   1.144   2.243  0.0339 -0.6014 -0.4146
 2843SOL    HW1 8528   2.810   1.158   2.333  2.3477  0.7468 -1.2708
 2843SOL    HW2 8529   2.749   1.054   2.242 -0.7272 -0.4091  1.8861
 2844SOL     OW 8530   2.901   3.805   1.802  0.3749  0.0711 -0.0114
 2844SOL    HW1 8531   2.838   3.864   1.758 -0.2254  0.7785  1.7261
 2844SOL    HW2 8532   2.938   3.858   1.873  2.1700 -0.6850 -0.3205
 2845SOL     OW 8533   3.273   2.572   0.793  0.1697 -0.2704 -0.2081
 2845SOL    HW1 8534   3.295   2.509   0.724  1.5650 -0.2671  0.1967
 2845SOL    HW2 8535   3.350   2.629   0.798 -0.2622  0.2451  0.7748
 2846SOL     OW 8536   3.968   2.087   2.386 -0.5932 -0.1757 -0.2875
 2846SOL    HW1 8537   3.937   2.029   2.455 -0.4500  0.2473  0.1408
 2846SOL    HW2 8538   3.912   2.164   2.393  1.0762  0.9837  1.0867
 2847SOL     OW 8539   1.609   0.136   2.733 -0.0477  0.1044  0.2388
 2847SOL    HW1 8540   1.629   0.212   2.678 -0.6782  1.7319  2.1327
 2847SOL    HW2 8541   1.537   0.165   2.789 -0.1078 -1.7961  1.2320
 2848SOL     OW 8542   2.975   0.960   3.475  0.0425 -0.5055  0.3423
 2848SOL    HW1 8543   2.996   0.867   3.482  0.5630 -0.3095  1.6217
 2848SOL    HW2 8544   3.017   1.000   3.551 -1.6136  0.5224  0.7626
 2849SOL     OW 8545   2.503   1.930   2.378 -0.3531  0.0360  0.4996
 2849SOL    HW1 8546   2.586   1.915   2.424 -0.0117 -0.8014 -0.3633
 2849SOL    HW2 8547   2.445   1.967   2.445  0.5396  0.0872  1.2606
 2850SOL     OW 8548   2.496   1.021   1.222 -0.0103 -0.2031  0.2459
 2850SOL    HW1 8549   2.440   0.978   1.158  2.5403 -1.2747 -1.4122
 2850SOL    HW2 8550   2.470   0.983   1.306 -1.4452 -0.9891 -0.5225
 2851SOL     OW 8551   0.170   1.107   0.432  0.7002  0.4178 -0.0166
 2851SOL    HW1 8552   0.139   1.187   0.475  0.4759 -0.5295  1.6874
 2851SOL    HW2 8553   0.265   1.118   0.426  0.8809  0.1917  1.6942
 2852SOL     OW 8554   0.410   0.604   0.861 -0.1285  0.2202 -0.5692
 2852SOL    HW1 8555   0.364   0.675   0.907  0.0412  0.4659 -0.7790
 2852SOL    HW2 8556   0.477   0.575   0.923  0.4681  0.9284 -0.8687
 2853SOL     OW 8557   1.312   3.789   1.461 -0.2890  0.1358  0.2382
 2853SOL    HW1 8558   1.298   3.867   1.408 -0.8654  0.2886  0.5998
 2853SOL    HW2 8559   1.288   3.816   1.550 -1.2213 -0.6497  0.2512
 2854SOL     OW 8560   0.028   2.749   2.434 -0.3400 -0.3271 -0.4371
 2854SOL    HW1 8561  -0.008   2.838   2.436 -1.5405 -0.7592 -1.2619
 2854SOL    HW2 8562   0.034   2.724   2.526 -0.5507  0.3982 -0.2153
 2855SOL     OW 8563   0.691   3.193   4.213  0.4315  0.6419  0.1836
 2855SOL    HW1 8564   0.636   3.190   4.135  0.3031  0.5812  0.2764
 2855SOL    HW2 8565   0.631   3.213   4.284  0.1661 -1.4698  0.6156
 2856SOL     OW 8566   3.002   3.346   3.740  0.9916  0.3148 -0.2316
 2856SOL    HW1 8567   3.080   3.378   3.784  1.2624  0.0508 -0.5072
 2856SOL    HW2 8568   3.023   3.352   3.647  1.0509 -0.6512 -0.2895
 2857SOL     OW 8569   3.162   4.436   3.731 -0.8212  0.0445 -0.1082
 2857SOL    HW1 8570   3.172   4.373   3.802  0.4836 -0.7547 -0.9599
 2857SOL    HW2 8571   3.163   4.522   3.774  0.6905 -0.3832  0.7864
 2858SOL     OW 8572   3.111   3.224   3.207 -0.2500  0.1236  0.1241
 2858SOL    HW1 8573   3.033   3.221   3.263 -0.2017 -0.4558  0.1734
 2858SOL    HW2 8574   3.105   3.308   3.162 -0.0350  0.8254  1.3470
 2859SOL     OW 8575   4.212   3.530   2.088 -0.4787 -0.2487 -0.0318
 2859SOL    HW1 8576   4.180   3.491   2.006  0.1512 -1.1811  0.1539
 2859SOL    HW2 8577   4.262   3.460   2.130 -2.0106 -0.3008  1.8832
 2860SOL     OW 8578   1.624   4.207   1.691 -0.3267 -0.0148  0.6766
 2860SOL    HW1 8579   1.569   4.158   1.630 -1.1635  1.6315  0.0685
 2860SOL    HW2 8580   1.574   4.207   1.773 -1.3878  1.6168  0.0821
 2861SOL     OW 8581   4.142   2.522   1.450  0.2082 -0.7218  0.8100
 2861SOL    HW1 8582   4.104   2.549   1.534 -0.0368  0.1772  0.4256
 2861SOL    HW2 8583   4.066   2.513   1.392  0.4780 -0.1201  0.3592
 2862SOL     OW 8584   1.003   2.657   2.121 -0.0131  0.1176 -0.1156
 2862SOL    HW1 8585   1.048   2.607   2.189 -1.5198 -0.9682  0.1360
 2862SOL    HW2 8586   1.066   2.723   2.094  1.1851 -0.4281  1.2283
 2863SOL     OW 8587   3.926   1.116   0.618 -0.1066 -0.0950 -0.5631
 2863SOL    HW1 8588   3.984   1.052   0.576  0.1647 -0.6288  0.6001
 2863SOL    HW2 8589   3.968   1.201   0.600  0.5399 -0.3990 -0.5149
 2864SOL     OW 8590   4.212   2.413   3.099  0.2715  0.2036  0.1530
 2864SOL    HW1 8591   4.136   2.449   3.143 -0.3825 -1.0056  0.0636
 2864SOL    HW2 8592   4.184   2.401   3.008  0.4684 -0.5077  0.1783
 2865SOL     OW 8593   3.774   2.151   0.243  0.0731  0.2302  0.5072
 2865SOL    HW1 8594   3.691   2.144   0.290 -0.2357 -0.8070 -0.1718
 2865SOL    HW2 8595   3.824   2.075   0.271 -0.0477 -0.3074 -0.6950
 2866SOL     OW 8596   3.208   1.956   0.563 -0.3621  0.5201  0.0638
 2866SOL    HW1 8597   3.154   1.968   0.485  2.0815 -0.6617 -1.9721
 2866SOL    HW2 8598   3.159   1.894   0.617 -1.0861 -0.5028 -1.6799
 2867SOL     OW 8599   0.230   0.836   3.001  0.2306  0.6471  0.3767
 2867SOL    HW1 8600   0.286   0.797   2.934  1.0285  1.2486  0.6898
 2867SOL    HW2 8601   0.142   0.833   2.962  0.8575  2.1882 -1.2614
 2868SOL     OW 8602   3.954   0.488   2.687 -1.0083 -0.2158 -0.0509
 2868SOL    HW1 8603   3.940   0.483   2.592  0.6893  0.3340 -0.3766
 2868SOL    HW2 8604   3.987   0.401   2.711 -0.6224 -0.0960 -0.1348
 2869SOL     OW 8605   1.871   4.419   0.305 -0.3334 -0.3986  0.1673
 2869SOL    HW1 8606   1.829   4.348   0.255  0.4353 -0.5837 -0.2420
 2869SOL    HW2 8607   1.898   4.378   0.387  1.3793 -0.9864 -0.6378
 2870SOL     OW 8608   1.385   2.727   1.094 -0.2943  0.0214 -0.6269
 2870SOL    HW1 8609   1.369   2.708   1.001 -0.3877 -0.1370 -0.5780
 2870SOL    HW2 8610   1.369   2.645   1.139 -1.3129  0.3683 -0.3411
 2871SOL     OW 8611   1.823   3.532   3.419 -0.0897 -0.0825  0.3245
 2871SOL    HW1 8612   1.820   3.485   3.502  1.1626 -0.3901  0.2252
 2871SOL    HW2 8613   1.800   3.622   3.441  1.5967  0.1485  1.2838
 2872SOL     OW 8614   0.695   2.011   1.107  0.3408 -0.1870  0.2577
 2872SOL    HW1 8615   0.713   2.102   1.082 -1.1437 -0.3178 -1.4777
 2872SOL    HW2 8616   0.648   2.018   1.190 -0.5976  0.7295 -0.3159
 2873SOL     OW 8617   2.709   0.518   3.185  0.2041  0.0569 -0.7647
 2873SOL    HW1 8618   2.748   0.580   3.246  0.4963 -0.4560 -0.4252
 2873SOL    HW2 8619   2.700   0.567   3.103 -0.6142  0.8955 -0.1999
 2874SOL     OW 8620   0.078   0.386   0.180 -0.0750  0.0927 -0.1424
 2874SOL    HW1 8621   0.072   0.442   0.258 -0.1420  2.0440 -1.4872
 2874SOL    HW2 8622   0.172   0.373   0.168 -0.0930 -1.5437  1.1112
 2875SOL     OW 8623   1.443   2.106   0.860  0.1836  0.2395 -0.4494
 2875SOL    HW1 8624   1.352   2.132   0.871 -0.2007 -1.7623  1.7429
 2875SOL    HW2 8625   1.493   2.184   0.882 -0.9718  0.4621  1.6212
 2876SOL     OW 8626   2.748   2.860   1.195  0.2664 -0.1461 -0.4823
 2876SOL    HW1 8627   2.718   2.778   1.156  0.5927 -1.0086  1.0081
 2876SOL    HW2 8628   2.667   2.908   1.215  0.0976  0.4518 -2.4111
 2877SOL     OW 8629   3.614   3.711   2.808 -0.1094 -0.3277  0.2891
 2877SOL    HW1 8630   3.681   3.704   2.876  0.2812 -0.5787 -0.1208
 2877SOL    HW2 8631   3.531   3.717   2.856  0.0735 -1.4835  0.7701
 2878SOL     OW 8632   3.681   2.629   3.583 -0.1771  0.3995 -0.6658
 2878SOL    HW1 8633   3.609   2.675   3.541 -2.7535 -2.2873  0.4730
 2878SOL    HW2 8634   3.640   2.559   3.634  3.2989 -2.3817 -1.2382
 2879SOL     OW 8635   4.080   1.164   1.096  0.0389 -0.1748 -0.2018
 2879SOL    HW1 8636   4.122   1.077   1.094  2.3278  0.8669 -0.8560
 2879SOL    HW2 8637   4.137   1.216   1.152 -1.2253  0.9822  0.0515
 2880SOL     OW 8638   3.755   1.150   0.837 -0.0682 -0.4859 -0.0440
 2880SOL    HW1 8639   3.671   1.105   0.846 -1.5031  1.6331 -1.6553
 2880SOL    HW2 8640   3.786   1.127   0.750 -0.8534  1.4965 -0.9178
 2881SOL     OW 8641   3.342   3.603   0.119  0.1627  0.3525 -0.3246
 2881SOL    HW1 8642   3.400   3.651   0.059 -0.0520 -0.1370 -0.9395
 2881SOL    HW2 8643   3.391   3.523   0.140  0.1186  0.3937 -0.0733
 2882SOL     OW 8644   2.189   2.552   2.868 -0.5167  0.6237 -0.3631
 2882SOL    HW1 8645   2.137   2.630   2.852  0.6527  1.0738 -2.2661
 2882SOL    HW2 8646   2.221   2.526   2.782 -0.3255 -1.5849  0.3047
 2883SOL     OW 8647   0.616   2.149   1.911  0.1442 -0.4031 -0.3245
 2883SOL    HW1 8648   0.613   2.071   1.965 -0.4869  0.9340  1.6714
 2883SOL    HW2 8649   0.586   2.220   1.968  3.4761  1.8572 -1.0893
 2884SOL     OW 8650   3.427   3.052   1.909  0.1601 -0.0219 -0.0607
 2884SOL    HW1 8651   3.502   3.020   1.959 -0.8137 -0.7978  0.9468
 2884SOL    HW2 8652   3.438   3.013   1.823  1.7889  1.2237 -0.4750
 2885SOL     OW 8653   2.036   3.118   1.377  0.3289  0.2615  0.2414
 2885SOL    HW1 8654   1.967   3.101   1.313 -1.2548  1.8136  1.4492
 2885SOL    HW2 8655   1.991   3.157   1.452  2.3825  0.3019  1.5512
 2886SOL     OW 8656   2.636   2.999   3.759  0.2864 -0.4205 -0.1228
 2886SOL    HW1 8657   2.648   2.941   3.834  0.1755 -2.6668 -1.7530
 2886SOL    HW2 8658   2.718   3.048   3.753 -0.1229  0.6783  2.0937
 2887SOL     OW 8659   1.155   2.768   1.365 -0.2812  0.2367  0.4711
 2887SOL    HW1 8660   1.242   2.789   1.330 -1.3096 -0.1100 -2.6843
 2887SOL    HW2 8661   1.169   2.698   1.427  1.9601  2.1832  2.3558
 2888SOL     OW 8662   3.780   3.424   2.854  0.3842 -0.4998 -0.2768
 2888SOL    HW1 8663   3.811   3.337   2.877  0.7534 -0.4213 -0.4746
 2888SOL    HW2 8664   3.843   3.484   2.895  0.1370 -0.3262 -0.1483
 2889SOL     OW 8665   2.797   1.550   0.096 -0.1747  0.0751  0.3571
 2889SOL    HW1 8666   2.772   1.627   0.146  0.0777  0.2517  0.2129
 2889SOL    HW2 8667   2.719   1.495   0.095 -1.3631  1.6105 -2.0062
 2890SOL     OW 8668   1.829   4.361   2.444 -0.3200 -0.0355  0.1305
 2890SOL    HW1 8669   1.873   4.422   2.386  1.9622 -0.7159  1.0200
 2890SOL    HW2 8670   1.892   4.345   2.514 -2.2179 -0.7143  1.7873
 2891SOL     OW 8671   0.581   1.012   2.739 -0.3324 -0.0962 -0.1651
 2891SOL    HW1 8672   0.612   0.980   2.655 -1.4022 -1.2046 -0.1527
 2891SOL    HW2 8673   0.634   1.090   2.755 -0.1654  0.1863 -1.8916
 2892SOL     OW 8674   4.338   4.085   0.765  0.4458  0.4553  0.7736
 2892SOL    HW1 8675   4.344   4.159   0.826 -0.3609  0.9041  0.3157
 2892SOL    HW2 8676   4.410   4.100   0.703 -0.7250  1.8099 -0.3305
 2893SOL     OW 8677   2.780   1.084   0.193 -0.1018 -0.4126 -0.6609
 2893SOL    HW1 8678   2.849   1.022   0.170  1.4603  0.5593  1.0504
 2893SOL    HW2 8679   2.752   1.057   0.281 -0.6115  0.2984 -0.5962
 2894SOL     OW 8680   4.380   1.381   2.317  0.2283 -0.1058 -0.3218
 2894SOL    HW1 8681   4.347   1.409   2.402 -1.3667 -0.7305 -0.6941
 2894SOL    HW2 8682   4.302   1.373   2.263  1.2456  0.7195 -1.9977
 2895SOL     OW 8683   3.803   4.442   3.639 -0.0015 -0.4015 -0.2682
 2895SOL    HW1 8684   3.838   4.527   3.668 -1.2965  0.0434  0.0538
 2895SOL    HW2 8685   3.864   4.413   3.571  0.8318  0.4701  0.0871
 2896SOL     OW 8686   0.838   1.197   0.462  0.0279  0.2172  0.6181
 2896SOL    HW1 8687   0.910   1.258   0.478  0.0896  0.9042 -1.8010
 2896SOL    HW2 8688   0.878   1.110   0.465  0.6194  0.4959  0.8978
 2897SOL     OW 8689   2.765   0.642   1.379  0.0905  0.6658  0.2319
 2897SOL    HW1 8690   2.728   0.642   1.291 -0.5974 -0.9597  0.4825
 2897SOL    HW2 8691   2.766   0.734   1.405  1.4931  1.3289 -1.9315
 2898SOL     OW 8692   0.769   1.062   0.783  0.4260  0.3391 -0.3614
 2898SOL    HW1 8693   0.700   1.108   0.734  0.1186 -0.0268 -0.2693
 2898SOL    HW2 8694   0.824   1.133   0.817 -0.9405  0.7317  1.1212
 2899SOL     OW 8695   0.782   2.279   1.342  0.1665  0.0797 -0.5519
 2899SOL    HW1 8696   0.820   2.192   1.359 -0.8415 -0.2630  0.0569
 2899SOL    HW2 8697   0.837   2.316   1.273  1.5265 -0.4305  0.2166
 2900SOL     OW 8698   1.379   1.662   3.621 -0.2665 -0.3466  0.4671
 2900SOL    HW1 8699   1.346   1.734   3.675  1.1835  0.1827  0.6718
 2900SOL    HW2 8700   1.452   1.626   3.670 -0.1521 -1.1128 -0.2541
 2901SOL     OW 8701   4.071   3.702   1.197  0.1234 -0.6287 -0.2076
 2901SOL    HW1 8702   4.096   3.778   1.249 -0.2485  0.3872 -1.4504
 2901SOL    HW2 8703   4.147   3.686   1.140 -0.9758  0.8904 -2.2210
 2902SOL     OW 8704   3.819   2.772   1.623  0.0187 -0.3022  0.0460
 2902SOL    HW1 8705   3.790   2.720   1.698  0.9397 -1.5093 -0.3860
 2902SOL    HW2 8706   3.775   2.733   1.547  2.1943 -1.8073 -0.5434
 2903SOL     OW 8707   1.039   0.577   2.598  0.3565  0.2858 -0.1995
 2903SOL    HW1 8708   0.973   0.508   2.599 -0.0813  0.6938 -0.0858
 2903SOL    HW2 8709   1.102   0.550   2.532  1.1923 -1.1268  1.1198
 2904SOL     OW 8710   4.447   3.748   2.992  0.1740  0.3289  0.1940
 2904SOL    HW1 8711   4.359   3.781   2.971 -0.1006  0.1690  1.0166
 2904SOL    HW2 8712   4.448   3.659   2.957 -0.2820  0.0537  0.8500
 2905SOL     OW 8713   3.333   3.254   1.492 -0.3321  0.5017 -0.2187
 2905SOL    HW1 8714   3.414   3.283   1.536  0.6439 -0.9736 -0.9731
 2905SOL    HW2 8715   3.270   3.242   1.563  0.1561  1.4889  0.4059
 2906SOL     OW 8716   0.342   3.464   2.669 -0.0429 -0.3660  0.3869
 2906SOL    HW1 8717   0.343   3.554   2.637 -0.2226  0.4995  2.6012
 2906SOL    HW2 8718   0.292   3.415   2.604 -0.9786  1.3843 -0.2720
 2907SOL     OW 8719   0.241   2.830   3.844  0.7940  0.1343  0.2576
 2907SOL    HW1 8720   0.204   2.917   3.834  0.0832 -0.3797 -2.7449
 2907SOL    HW2 8721   0.196   2.793   3.920 -0.0389  1.8068  0.6314
 2908SOL     OW 8722   3.304   3.040   2.482  0.4746  0.0632 -0.0022
 2908SOL    HW1 8723   3.264   3.063   2.398 -1.5126 -0.7851  0.6408
 2908SOL    HW2 8724   3.266   3.102   2.544 -0.8484 -1.4931  0.8314
 2909SOL     OW 8725   1.861   3.189   2.840 -0.2807  0.3461 -0.1487
 2909SOL    HW1 8726   1.789   3.238   2.801  0.5622  2.1100  0.3952
 2909SOL    HW2 8727   1.880   3.237   2.921  0.0829 -1.3656  0.8171
 2910SOL     OW 8728   1.422   2.656   3.293 -0.0609  0.3785 -0.5754
 2910SOL    HW1 8729   1.500   2.622   3.248 -0.4297  0.6318 -1.4327
 2910SOL    HW2 8730   1.368   2.691   3.222 -0.6968  0.7176  0.0733
 2911SOL     OW 8731   1.985   2.601   1.363  0.4663  0.4970 -0.5028
 2911SOL    HW1 8732   2.072   2.641   1.355  0.7315  0.0081 -0.1354
 2911SOL    HW2 8733   1.993   2.542   1.438  0.2350 -0.6134 -1.3305
 2912SOL     OW 8734   1.099   3.669   1.860  0.5104 -0.1759  0.2605
 2912SOL    HW1 8735   1.106   3.574   1.848 -0.1145 -0.0396 -1.4696
 2912SOL    HW2 8736   1.159   3.706   1.795  1.3464  0.6300  1.4557
 2913SOL     OW 8737   0.984   3.202   3.482  0.7038  0.6057  0.1331
 2913SOL    HW1 8738   1.003   3.287   3.442 -1.5295  1.1580  0.0776
 2913SOL    HW2 8739   0.936   3.224   3.562  0.1661 -0.6059  0.1635
 2914SOL     OW 8740   0.754   1.927   0.854  0.0581 -0.1134 -0.6923
 2914SOL    HW1 8741   0.736   1.957   0.942 -0.2828  2.3585 -1.5394
 2914SOL    HW2 8742   0.795   1.841   0.866 -0.5998 -0.1564  1.7978
 2915SOL     OW 8743   0.718   1.049   4.030 -0.0343  0.4361  0.3040
 2915SOL    HW1 8744   0.811   1.030   4.047  0.2480  1.0022 -0.5024
 2915SOL    HW2 8745   0.691   0.983   3.967  0.2165  1.0761 -0.4986
 2916SOL     OW 8746   0.676   3.925   0.487  0.4422  0.1877 -0.7589
 2916SOL    HW1 8747   0.768   3.910   0.464  0.2903 -0.7447 -0.8014
 2916SOL    HW2 8748   0.671   4.019   0.507  1.1756  0.4736 -1.8015
 2917SOL     OW 8749   1.862   2.266   0.988  0.2017  0.5796  0.5165
 2917SOL    HW1 8750   1.870   2.191   1.047 -2.1038  0.2284  0.4729
 2917SOL    HW2 8751   1.897   2.340   1.037  2.6552 -0.4839  0.5136
 2918SOL     OW 8752   0.286   0.161   0.877 -0.4551  0.2692  0.0393
 2918SOL    HW1 8753   0.241   0.079   0.899 -0.2419 -0.1941 -1.1629
 2918SOL    HW2 8754   0.229   0.202   0.811  0.5700 -0.0507 -1.0858
 2919SOL     OW 8755   0.853   0.342   0.481  0.3283 -0.0294 -0.2064
 2919SOL    HW1 8756   0.883   0.312   0.396  0.1914  1.4101 -0.7958
 2919SOL    HW2 8757   0.786   0.279   0.506  0.2674 -0.3951 -1.2380
 2920SOL     OW 8758   1.823   0.014   1.662 -0.3211  0.0617 -0.4871
 2920SOL    HW1 8759   1.873  -0.056   1.621  0.8029  1.2901 -1.3109
 2920SOL    HW2 8760   1.888   0.081   1.684 -1.4284  1.1425 -0.3423
 2921SOL     OW 8761   0.443   1.438   2.724 -0.6676 -0.7950 -0.0003
 2921SOL    HW1 8762   0.360   1.484   2.730 -0.7386 -0.7254 -1.2422
 2921SOL    HW2 8763   0.463   1.412   2.814 -1.1651  0.6968  0.5664
 2922SOL     OW 8764   2.756   1.390   0.852 -0.4579  0.5713 -0.2311
 2922SOL    HW1 8765   2.798   1.365   0.769 -0.3223  2.2940 -0.7031
 2922SOL    HW2 8766   2.822   1.371   0.919  0.0410  0.6721 -0.6859
 2923SOL     OW 8767   0.881   3.182   0.596 -0.1548 -0.2811 -0.2748
 2923SOL    HW1 8768   0.872   3.185   0.501  0.3428  0.4385 -0.3052
 2923SOL    HW2 8769   0.935   3.105   0.613 -1.5988 -1.3750 -0.4511
 2924SOL     OW 8770   0.665   0.614   1.447  0.5070  0.1317 -0.2782
 2924SOL    HW1 8771   0.632   0.654   1.528  0.5541 -1.5606  0.6069
 2924SOL    HW2 8772   0.591   0.565   1.412  0.9877 -0.5898 -0.3009
 2925SOL     OW 8773   2.694   1.934   3.333 -0.1664 -0.2940 -0.0034
 2925SOL    HW1 8774   2.611   1.920   3.289 -0.9696 -0.2751  1.4508
 2925SOL    HW2 8775   2.699   2.028   3.347 -0.5084 -0.4193  1.0278
 2926SOL     OW 8776   0.387   3.114   3.165 -0.0961  0.3594 -0.8095
 2926SOL    HW1 8777   0.444   3.152   3.233 -0.0402 -0.0720 -0.6119
 2926SOL    HW2 8778   0.430   3.032   3.141 -1.2491 -0.5784  0.2090
 2927SOL     OW 8779   3.551   2.437   3.730 -0.0550 -0.4416  0.2555
 2927SOL    HW1 8780   3.476   2.382   3.752  0.6906 -1.3722  0.5268
 2927SOL    HW2 8781   3.627   2.380   3.741  0.7806  0.7811  1.0382
 2928SOL     OW 8782   1.324   2.672   0.828 -0.4638  0.2308 -0.5573
 2928SOL    HW1 8783   1.404   2.622   0.809  0.1262  0.7105  0.5265
 2928SOL    HW2 8784   1.302   2.715   0.746 -0.3770 -0.9711 -1.2264
 2929SOL     OW 8785   4.360   3.630   1.481 -0.2037 -0.2504 -0.2282
 2929SOL    HW1 8786   4.439   3.576   1.481  1.5075  2.0585 -0.9725
 2929SOL    HW2 8787   4.371   3.688   1.557 -0.0694  1.5029 -1.5224
 2930SOL     OW 8788   0.064   2.012   2.330  0.5156  0.1110 -0.6173
 2930SOL    HW1 8789   0.110   1.960   2.264  1.4079 -0.0159  0.0866
 2930SOL    HW2 8790   0.001   1.951   2.369 -1.2985  0.6388 -2.5269
 2931SOL     OW 8791   3.421   2.072   0.676 -0.6832  0.6334  0.5452
 2931SOL    HW1 8792   3.358   2.043   0.609 -0.0543  0.4288  0.0263
 2931SOL    HW2 8793   3.373   2.137   0.727 -1.3297  0.4543  0.1858
 2932SOL     OW 8794   2.611   0.456   0.053  0.4047  0.4633  0.2981
 2932SOL    HW1 8795   2.608   0.389   0.123  0.5381 -1.2681 -1.2698
 2932SOL    HW2 8796   2.675   0.520   0.085  0.5768 -0.3516  1.7086
 2933SOL     OW 8797   1.670   3.899   0.590  0.3871 -0.4188 -0.2560
 2933SOL    HW1 8798   1.612   3.902   0.514 -0.3553  2.4904  0.2866
 2933SOL    HW2 8799   1.618   3.936   0.661  2.6955  1.9997  0.3504
 2934SOL     OW 8800   0.164   1.994   3.461 -0.1525  0.3126 -0.0181
 2934SOL    HW1 8801   0.129   1.908   3.438  0.8978  0.3213 -1.7923
 2934SOL    HW2 8802   0.259   1.982   3.466  0.1076  1.5195 -1.2121
 2935SOL     OW 8803   2.305   3.321   0.188  0.4358 -0.1066 -0.2338
 2935SOL    HW1 8804   2.386   3.370   0.205  0.7465 -0.6148 -0.2487
 2935SOL    HW2 8805   2.252   3.382   0.137  0.8884  0.1593 -0.4004
 2936SOL     OW 8806   0.402   3.209   3.601  0.0104  0.3159  0.3981
 2936SOL    HW1 8807   0.406   3.115   3.616  1.0709 -0.1485 -2.2343
 2936SOL    HW2 8808   0.347   3.218   3.523 -1.0897  2.0141  1.3180
 2937SOL     OW 8809   4.486   1.700   2.499 -0.0498 -0.0196 -0.1955
 2937SOL    HW1 8810   4.415   1.742   2.450 -0.5501 -0.4933  0.1163
 2937SOL    HW2 8811   4.452   1.613   2.521  1.2963 -0.9674 -1.6151
 2938SOL     OW 8812   2.785   0.868   0.542  0.1705 -0.1312 -0.6373
 2938SOL    HW1 8813   2.878   0.870   0.520  0.1195 -0.5017 -0.8831
 2938SOL    HW2 8814   2.761   0.960   0.551  1.0782 -0.0342  1.6039
 2939SOL     OW 8815   0.264   3.676   3.701 -0.3097  0.4118  0.0454
 2939SOL    HW1 8816   0.298   3.594   3.736 -0.5890  0.7288  1.1089
 2939SOL    HW2 8817   0.331   3.741   3.722 -0.7578  0.7169  0.5703
 2940SOL     OW 8818   3.080   1.201   4.407  0.3347 -0.3952 -0.4208
 2940SOL    HW1 8819   3.099   1.203   4.501 -0.1039 -1.9192 -0.2654
 2940SOL    HW2 8820   3.116   1.282   4.373 -0.0628  0.4856  1.1713
 2941SOL     OW 8821   4.127   1.670   0.465 -0.0849 -0.3219  0.5785
 2941SOL    HW1 8822   4.220   1.680   0.446 -0.2153  0.3717  0.2564
 2941SOL    HW2 8823   4.119   1.583   0.505  0.8745  0.1378  1.8113
 2942SOL     OW 8824   4.060   0.235   3.318  0.1861 -0.7321 -0.8660
 2942SOL    HW1 8825   4.011   0.290   3.379 -0.9116 -0.4244 -1.9758
 2942SOL    HW2 8826   4.091   0.296   3.251  0.1626 -1.2543 -1.3599
 2943SOL     OW 8827   2.350   0.032   3.409 -0.3031  0.0959  0.0430
 2943SOL    HW1 8828   2.437   0.009   3.376  0.4782  1.8454  0.7386
 2943SOL    HW2 8829   2.289  -0.011   3.350  1.0376 -0.6099 -0.8737
 2944SOL     OW 8830   0.240   3.126   1.885 -0.0147  0.3033  0.4190
 2944SOL    HW1 8831   0.231   3.222   1.887  0.6957  0.4243 -1.0729
 2944SOL    HW2 8832   0.162   3.095   1.839 -0.2290  0.1470  0.8749
 2945SOL     OW 8833   0.708   0.721  -0.014 -0.3426  0.2501 -0.4738
 2945SOL    HW1 8834   0.689   0.723   0.079  0.3748  0.0144 -0.3187
 2945SOL    HW2 8835   0.799   0.693  -0.020 -0.0262  1.3220 -1.1874
 2946SOL     OW 8836   1.215   3.687   0.808  0.3753 -0.1156  0.0694
 2946SOL    HW1 8837   1.238   3.759   0.867  2.9128 -0.9786  0.2830
 2946SOL    HW2 8838   1.165   3.626   0.863 -0.4931  0.7771  0.2883
 2947SOL     OW 8839   1.587   3.450   0.258 -0.4256 -0.0060 -0.9542
 2947SOL    HW1 8840   1.660   3.444   0.320 -1.1897 -0.2493 -0.0582
 2947SOL    HW2 8841   1.605   3.380   0.195 -0.0993 -0.3385 -0.5054
 2948SOL     OW 8842   0.788   1.964   4.211  0.2175 -0.5091 -0.1182
 2948SOL    HW1 8843   0.737   1.883   4.215 -1.2707  0.4534  0.8665
 2948SOL    HW2 8844   0.746   2.023   4.272  0.8989  1.2523 -1.2738
 2949SOL     OW 8845   3.597   0.783   4.440  0.2064  0.2674 -0.1274
 2949SOL    HW1 8846   3.632   0.710   4.390  0.3798 -0.9095  1.6210
 2949SOL    HW2 8847   3.630   0.769   4.529  0.9542  2.9530  0.1029
 2950SOL     OW 8848   2.657   2.443   2.052  0.5029 -0.0768 -0.3654
 2950SOL    HW1 8849   2.696   2.359   2.030 -0.5752 -0.9562  0.9278
 2950SOL    HW2 8850   2.595   2.460   1.982  0.3292 -0.6353 -0.3503
 2951SOL     OW 8851   3.453   0.682   2.613  0.3581 -0.5856  0.3025
 2951SOL    HW1 8852   3.389   0.611   2.620  0.7190 -1.0144 -0.5847
 2951SOL    HW2 8853   3.400   0.760   2.596  0.0205 -0.7959  0.3669
 2952SOL     OW 8854   1.647   1.660   2.144 -0.7878  0.7079 -0.1398
 2952SOL    HW1 8855   1.673   1.711   2.067 -1.1641  0.1336 -0.6594
 2952SOL    HW2 8856   1.559   1.691   2.165  0.3498  2.8589  1.7964
 2953SOL     OW 8857   0.222   3.981   3.873 -0.2136 -0.4792  0.3743
 2953SOL    HW1 8858   0.234   3.917   3.802  2.4755 -1.2155  1.3660
 2953SOL    HW2 8859   0.302   4.033   3.873 -1.6888  1.9201  0.6195
 2954SOL     OW 8860   0.360   2.011   0.306  0.2113  0.0554  0.1507
 2954SOL    HW1 8861   0.414   1.938   0.337 -0.9693  0.1829  2.7843
 2954SOL    HW2 8862   0.337   1.988   0.216  1.6680 -1.7221  0.1713
 2955SOL     OW 8863   0.067   3.618   3.475 -0.2516 -0.0218  0.5765
 2955SOL    HW1 8864   0.105   3.630   3.562 -0.8221 -0.3547  0.8768
 2955SOL    HW2 8865   0.067   3.523   3.462  3.0823  0.0859 -1.2564
 2956SOL     OW 8866   1.537   2.903   3.945  0.0456 -0.1981 -0.5484
 2956SOL    HW1 8867   1.490   2.871   4.023  0.2879  0.0927 -0.2832
 2956SOL    HW2 8868   1.520   2.836   3.879  0.8345 -1.0807  0.1072
 2957SOL     OW 8869   0.888   0.835   1.622  0.2521 -0.3508  0.3668
 2957SOL    HW1 8870   0.822   0.814   1.688  0.4273  0.4080  0.8017
 2957SOL    HW2 8871   0.944   0.758   1.619 -1.0324 -1.2890 -0.5040
 2958SOL     OW 8872   3.398   2.076   3.380  0.2105  0.4139 -0.2058
 2958SOL    HW1 8873   3.384   1.988   3.344  1.0185  0.6335 -1.0861
 2958SOL    HW2 8874   3.485   2.101   3.349  0.3095  1.2230  0.6784
 2959SOL     OW 8875   1.912   4.122   4.479 -0.0353  0.2751 -0.1633
 2959SOL    HW1 8876   1.826   4.158   4.503  0.2152  0.1386  1.0129
 2959SOL    HW2 8877   1.894   4.069   4.401 -0.9365  0.6073 -0.2003
 2960SOL     OW 8878   0.041   0.552   1.272  0.2109  0.4512  0.4717
 2960SOL    HW1 8879   0.113   0.579   1.329  0.3107  1.1536  0.0233
 2960SOL    HW2 8880  -0.033   0.538   1.331  0.4040  0.8425  0.8110
 2961SOL     OW 8881   0.577   0.127   3.742 -0.5044 -0.3906  0.4218
 2961SOL    HW1 8882   0.529   0.050   3.712  0.8666 -0.9324 -0.4784
 2961SOL    HW2 8883   0.606   0.171   3.662 -0.0717  0.2875  0.9383
 2962SOL     OW 8884   3.454   2.943   4.424 -0.1418  0.1341  0.1983
 2962SOL    HW1 8885   3.415   3.026   4.397 -0.6068 -0.6984 -1.8729
 2962SOL    HW2 8886   3.533   2.935   4.370  0.1025 -0.6198  0.6443
 2963SOL     OW 8887   3.253   0.157   0.740  0.1344  0.5282 -0.3222
 2963SOL    HW1 8888   3.203   0.116   0.669 -1.0168  0.7950  0.2999
 2963SOL    HW2 8889   3.225   0.249   0.738  2.8814  1.4331 -1.8841
 2964SOL     OW 8890   0.792   1.044   3.176  0.1265 -0.6225 -0.3105
 2964SOL    HW1 8891   0.789   1.118   3.237  0.3773 -0.0450 -0.9857
 2964SOL    HW2 8892   0.701   1.033   3.149  0.4141  1.1854 -2.2348
 2965SOL     OW 8893   2.298   1.640   1.878 -0.2182 -0.5555  0.3668
 2965SOL    HW1 8894   2.231   1.572   1.886  0.5260 -1.2164  1.1139
 2965SOL    HW2 8895   2.341   1.642   1.963  0.7404 -0.1609 -0.1138
 2966SOL     OW 8896   3.291   1.467   1.931 -0.1278 -0.3124  0.0234
 2966SOL    HW1 8897   3.312   1.431   2.017 -1.8273  2.1194  1.5564
 2966SOL    HW2 8898   3.340   1.549   1.926 -0.5449 -0.1102 -1.0760
 2967SOL     OW 8899   1.219   4.475   3.045 -0.4163 -0.0207 -0.1031
 2967SOL    HW1 8900   1.292   4.523   3.085 -1.3844  1.2475  0.1927
 2967SOL    HW2 8901   1.261   4.414   2.984  0.8253  2.3633 -1.7788
 2968SOL     OW 8902   0.876   1.310   0.854 -0.2277 -0.2686  0.1463
 2968SOL    HW1 8903   0.919   1.342   0.933 -0.4547 -0.4875  0.3589
 2968SOL    HW2 8904   0.903   1.372   0.786 -1.5456  1.0334  0.7679
 2969SOL     OW 8905   2.662   1.432   3.872 -0.7341  0.3081 -0.1316
 2969SOL    HW1 8906   2.707   1.479   3.943  0.4393 -0.0003 -0.6382
 2969SOL    HW2 8907   2.576   1.473   3.868 -0.4605  1.0334  0.7896
 2970SOL     OW 8908   4.098   3.237   4.127  0.4381  0.1650 -0.4924
 2970SOL    HW1 8909   4.140   3.156   4.099 -0.1976 -0.5695  0.6346
 2970SOL    HW2 8910   4.108   3.239   4.222 -0.5312  0.8531 -0.3895
 2971SOL     OW 8911   2.135   0.879   1.721  0.7788  0.4509  0.1089
 2971SOL    HW1 8912   2.062   0.865   1.781 -0.1299  1.5687 -0.6844
 2971SOL    HW2 8913   2.207   0.909   1.777  0.9703 -1.5740  1.0261
 2972SOL     OW 8914   1.230   3.948   0.146 -0.4277 -0.4290  0.3399
 2972SOL    HW1 8915   1.301   3.979   0.091 -1.3581 -0.6758 -1.0355
 2972SOL    HW2 8916   1.272   3.887   0.208  0.6414 -0.0574 -0.0071
   4.49214   4.49214   4.49214
