water box
 2652
    1SOL     OW    1   0.103   0.815   1.105 -0.5318  0.6717  0.5932
    1SOL    HW1    2   0.075   0.725   1.086  1.0414  0.0457  1.0869
    1SOL    HW2    3   0.044   0.844   1.174 -1.9357  0.5428 -0.4869
    2SOL     OW    4   1.800   2.602   1.272  0.3725 -0.1980 -0.1525
    2SOL    HW1    5   1.714   2.645   1.269  0.1601 -0.5846  0.3318
    2SOL    HW2    6   1.791   2.528   1.211  0.3702 -0.2202 -0.1253
    3SOL     OW    7   2.441   1.205   2.962 -0.1118 -0.5254 -0.2822
    3SOL    HW1    8   2.482   1.196   2.876  0.1078 -0.3510 -0.1967
    3SOL    HW2    9   2.470   1.128   3.010  1.6551  0.5084  0.4031
    4SOL     OW   10   2.713   0.506   1.971  0.1696 -0.0045 -0.1482
    4SOL    HW1   11   2.652   0.491   2.043  0.6993 -1.3156  0.0672
    4SOL    HW2   12   2.800   0.497   2.011  0.5064  1.2950 -0.5510
    5SOL     OW   13   2.168   1.790   0.008  0.7838 -0.2398 -0.5398
    5SOL    HW1   14   2.106   1.860   0.024  0.1573 -0.8353 -0.3224
    5SOL    HW2   15   2.239   1.806   0.071  0.3912 -0.1058 -0.1277
    6SOL     OW   16   2.790   1.756   0.783 -0.2227 -0.6204 -0.0351
    6SOL    HW1   17   2.701   1.746   0.815 -0.4141  1.8655  0.4539
    6SOL    HW2   18   2.845   1.738   0.859 -0.3901 -0.6143  0.0875
    7SOL     OW   19   2.675   1.906   0.534 -0.4942 -0.2813 -0.3376
    7SOL    HW1   20   2.761   1.872   0.559 -1.2114 -1.8256  0.1641
    7SOL    HW2   21   2.685   2.002   0.536  1.1158 -0.4348  0.0017
    8SOL     OW   22   1.687   2.536   2.404  0.9973  0.3951 -0.2999
    8SOL    HW1   23   1.678   2.443   2.387  0.6491  0.5425 -0.9475
    8SOL    HW2   24   1.699   2.542   2.499 -2.1547 -0.1164  0.2630
    9SOL     OW   25   0.800   2.345   0.810 -0.3086 -0.0771  0.3732
    9SOL    HW1   26   0.784   2.333   0.904  1.9627 -3.0576  0.5027
    9SOL    HW2   27   0.895   2.336   0.800 -0.6462 -1.6527 -2.3886
   10SOL     OW   28   0.939   0.131   1.085 -0.2647  0.0545  0.1634
   10SOL    HW1   29   0.904   0.152   0.999 -1.1876  1.0509  0.7548
   10SOL    HW2   30   1.033   0.118   1.071 -0.1023  1.8902 -0.7143
   11SOL     OW   31   2.123   1.801   2.733 -0.2938  0.1922 -0.0540
   11SOL    HW1   32   2.120   1.814   2.827 -0.3795  0.4137 -0.0881
   11SOL    HW2   33   2.209   1.834   2.707 -0.6603  1.0508 -0.1948
   12SOL     OW   34   2.983   1.277   2.095 -0.6175 -0.1039  0.1484
   12SOL    HW1   35   2.907   1.218   2.089 -0.0639 -0.6543 -2.6405
   12SOL    HW2   36   3.026   1.269   2.010  0.4823  3.0387  0.3014
   13SOL     OW   37   2.214   0.329   0.526 -0.0597  0.5905 -0.0758
   13SOL    HW1   38   2.250   0.364   0.444 -1.2038  2.1876  0.0679
   13SOL    HW2   39   2.145   0.269   0.497 -0.0605  0.6878 -0.2810
   14SOL     OW   40   1.812   1.257   2.064  0.4809  0.5308 -0.1622
   14SOL    HW1   41   1.734   1.293   2.021 -2.1087 -0.9833  2.8247
   14SOL    HW2   42   1.830   1.176   2.017  0.1664  0.8512 -0.8444
   15SOL     OW   43   2.777   1.250   2.587 -0.2225  0.4540  0.0147
   15SOL    HW1   44   2.829   1.310   2.640  1.8054 -0.8880 -0.3252
   15SOL    HW2   45   2.775   1.289   2.500 -0.2470  0.7922  0.1677
   16SOL     OW   46   2.020   1.864   0.960 -0.6283  0.1235 -0.2191
   16SOL    HW1   47   1.980   1.925   1.022 -1.3166  0.3835 -0.8997
   16SOL    HW2   48   1.949   1.803   0.938 -0.3269 -0.0980 -0.5791
   17SOL     OW   49   0.837   0.173   2.863  0.1468 -0.1318 -0.5541
   17SOL    HW1   50   0.853   0.160   2.770  0.4463  1.4557 -0.7467
   17SOL    HW2   51   0.797   0.091   2.892 -0.1823 -0.5507 -2.1206
   18SOL     OW   52   1.523   0.505   2.219 -0.1731  0.3537  0.0298
   18SOL    HW1   53   1.579   0.537   2.291 -1.0004  2.7515 -0.3020
   18SOL    HW2   54   1.446   0.562   2.222 -0.7978 -0.3268 -1.9911
   19SOL     OW   55   2.690   1.002   2.713  0.3916 -0.7059 -0.4055
   19SOL    HW1   56   2.739   1.072   2.670 -0.1355 -1.3348 -2.1085
   19SOL    HW2   57   2.700   1.020   2.806  2.7489 -0.0531 -0.7075
   20SOL     OW   58   0.948   2.260   2.200 -0.5094  0.1136 -0.0939
   20SOL    HW1   59   0.929   2.168   2.182  0.4324 -0.1284  0.0495
   20SOL    HW2   60   1.031   2.276   2.155 -0.3342  0.7071  0.4206
   21SOL     OW   61   1.568   0.236   2.191 -0.5524 -0.1452 -0.1425
   21SOL    HW1   62   1.571   0.225   2.096  0.6209  1.0064 -0.2577
   21SOL    HW2   63   1.538   0.326   2.204  0.2166  0.0144  0.5566
   22SOL     OW   64   1.184   2.891   2.434 -0.2205 -0.3822  0.0644
   22SOL    HW1   65   1.180   2.832   2.510 -0.8379  0.4909  0.7318
   22SOL    HW2   66   1.269   2.934   2.441 -0.9660  0.9689  1.2692
   23SOL     OW   67   1.312   0.689   2.201  0.1913 -0.1176  0.4074
   23SOL    HW1   68   1.287   0.776   2.169  2.2035  0.5846  0.5673
   23SOL    HW2   69   1.235   0.634   2.185 -2.5229  2.3747  3.4245
   24SOL     OW   70   1.317   0.788   2.468 -0.6645  0.0427 -0.3756
   24SOL    HW1   71   1.234   0.762   2.508  0.3613 -3.3693 -0.0967
   24SOL    HW2   72   1.317   0.744   2.383  1.2088 -0.8802  0.0450
   25SOL     OW   73   0.129   0.387   0.031 -0.3182  0.3087  0.0895
   25SOL    HW1   74   0.097   0.300   0.008 -0.1557  0.0847  0.6859
   25SOL    HW2   75   0.214   0.393  -0.011 -0.6730  0.4954 -0.6193
   26SOL     OW   76   0.306   0.304   0.625 -0.1696 -0.0220 -0.4614
   26SOL    HW1   77   0.263   0.253   0.556 -0.2442  0.1704 -0.5575
   26SOL    HW2   78   0.326   0.388   0.585 -0.5038  0.2079 -0.1584
   27SOL     OW   79   1.639   1.103   0.936  0.1711 -0.5424  0.4019
   27SOL    HW1   80   1.544   1.106   0.929  0.2700  0.5660 -0.7696
   27SOL    HW2   81   1.664   1.021   0.893 -0.2939 -1.3908  1.6830
   28SOL     OW   82   0.250   1.424   2.048 -0.2065  0.2359  0.0143
   28SOL    HW1   83   0.283   1.486   1.983  0.2287 -1.0041 -0.9915
   28SOL    HW2   84   0.155   1.438   2.048 -0.0516  1.3862  0.3408
   29SOL     OW   85   2.252   0.546   2.566  0.3904 -0.3179  0.0553
   29SOL    HW1   86   2.277   0.533   2.475  1.0706 -0.3679  0.2487
   29SOL    HW2   87   2.331   0.579   2.609  0.3664 -1.2630  0.8519
   30SOL     OW   88   1.141   2.210   1.987  0.1206  0.3143  0.3435
   30SOL    HW1   89   1.221   2.224   2.037  1.1947  0.5368 -1.3626
   30SOL    HW2   90   1.170   2.205   1.896 -1.5846 -1.5562 -0.1536
   31SOL     OW   91   1.813   2.928   2.760 -0.1318 -0.6362 -0.2764
   31SOL    HW1   92   1.897   2.941   2.803 -1.4661  0.5352  2.2396
   31SOL    HW2   93   1.799   3.010   2.711  0.4671 -1.1224 -1.2900
   32SOL     OW   94   1.928   2.909   0.419 -0.2055  0.8534  0.7840
   32SOL    HW1   95   1.993   2.854   0.376 -0.2921  0.4328  1.1876
   32SOL    HW2   96   1.891   2.854   0.487 -1.1485  1.0170  0.4128
   33SOL     OW   97   2.600   0.473   1.101 -0.4705 -0.0247  0.4431
   33SOL    HW1   98   2.550   0.391   1.096  1.8975 -1.6403  1.7152
   33SOL    HW2   99   2.633   0.475   1.190 -0.6272  2.4842  0.5027
   34SOL     OW  100   0.422   0.810   2.335 -0.5492  0.1209  0.7479
   34SOL    HW1  101   0.372   0.729   2.328 -0.4203  0.0577  0.5740
   34SOL    HW2  102   0.375   0.872   2.279  1.3715 -0.8107 -2.0729
   35SOL     OW  103   2.520   0.964   0.099  0.0554  0.1437 -0.1301
   35SOL    HW1  104   2.450   0.918   0.053 -0.7689  1.1995  0.0099
   35SOL    HW2  105   2.554   0.900   0.162  0.3042 -0.8811 -1.2910
   36SOL     OW  106   0.524   2.460   2.309 -0.2348 -0.3725  0.2943
   36SOL    HW1  107   0.562   2.384   2.264 -1.5571 -1.0995  0.3542
   36SOL    HW2  108   0.589   2.530   2.297 -0.2325 -0.7152 -2.1830
   37SOL     OW  109   0.988   0.020   2.629 -0.3093  0.0038 -0.0254
   37SOL    HW1  110   1.075   0.035   2.593 -0.8022 -1.6919 -2.1203
   37SOL    HW2  111   0.932   0.084   2.586 -0.3516  0.1017  0.1748
   38SOL     OW  112   0.710   1.489   2.992 -0.1372 -0.0835 -0.0702
   38SOL    HW1  113   0.681   1.517   2.905  0.7534  0.2763 -0.2558
   38SOL    HW2  114   0.668   1.552   3.052  0.7332  0.8184 -0.3826
   39SOL     OW  115   2.811   2.968   1.978 -0.4311 -0.0466 -0.2074
   39SOL    HW1  116   2.778   2.886   1.940  0.4832 -0.2017 -0.6931
   39SOL    HW2  117   2.884   2.942   2.033 -1.5754  0.2097  1.5305
   40SOL     OW  118   2.848   1.073   1.165  0.0348 -0.5641  0.0340
   40SOL    HW1  119   2.788   1.039   1.099  1.9713 -0.2185 -2.0405
   40SOL    HW2  120   2.874   0.997   1.216 -1.4904 -0.8487  0.4187
   41SOL     OW  121   2.362   2.164   2.915 -0.5694  0.2229 -0.3313
   41SOL    HW1  122   2.382   2.109   2.839  1.2956 -1.1979  1.0769
   41SOL    HW2  123   2.283   2.126   2.953 -0.9348  0.3257 -0.9732
   42SOL     OW  124   1.938   1.261   0.780  0.0101  0.0509 -0.1070
   42SOL    HW1  125   1.909   1.180   0.737  0.0534 -0.2225  0.3730
   42SOL    HW2  126   1.857   1.308   0.800 -0.0190  0.0894 -0.3143
   43SOL     OW  127   0.869   1.266   2.686 -0.0682 -0.3879  0.3687
   43SOL    HW1  128   0.818   1.284   2.765 -1.4471  0.4818 -0.6876
   43SOL    HW2  129   0.846   1.176   2.663 -1.5632  0.1734 -0.3954
   44SOL     OW  130   1.046   1.204   1.979 -0.4576 -0.7185  0.1291
   44SOL    HW1  131   1.136   1.215   1.948 -0.5605 -1.5772 -0.5149
   44SOL    HW2  132   1.015   1.293   1.995  0.7176 -0.4373  1.0079
   45SOL     OW  133   0.496   0.687   2.830 -0.0101 -0.0878 -0.0818
   45SOL    HW1  134   0.480   0.781   2.821 -0.6088 -0.3158 -1.9682
   45SOL    HW2  135   0.590   0.680   2.845 -0.0260  0.8251  0.5131
   46SOL     OW  136   0.949   0.635   1.880 -0.1845  0.0841  0.2210
   46SOL    HW1  137   0.896   0.697   1.831 -0.7122 -1.4266 -1.2509
   46SOL    HW2  138   0.910   0.549   1.860  0.4060 -0.7149  2.2825
   47SOL     OW  139   1.011   0.183   0.094 -0.0193 -0.3155  0.2189
   47SOL    HW1  140   1.050   0.270   0.088 -0.4381 -0.0123  1.5212
   47SOL    HW2  141   0.976   0.166   0.007 -1.7335  1.6848  0.4432
   48SOL     OW  142   1.948   0.067   2.233 -0.6594 -0.2154  0.0992
   48SOL    HW1  143   1.947   0.162   2.247 -0.2844 -0.3514  1.1914
   48SOL    HW2  144   1.894   0.053   2.156 -1.1158  0.8435  0.2107
   49SOL     OW  145   0.727   1.886   1.187  0.4525 -0.3628  0.0650
   49SOL    HW1  146   0.718   1.800   1.229  0.3324 -0.4238 -0.0872
   49SOL    HW2  147   0.817   1.912   1.207 -1.0036  2.0598  5.0426
   50SOL     OW  148   0.933   0.502   1.212 -0.3276 -0.0952 -0.0960
   50SOL    HW1  149   0.881   0.496   1.131 -0.8049 -0.2540  0.2158
   50SOL    HW2  150   1.000   0.568   1.193 -0.0004 -0.6383 -0.8593
   51SOL     OW  151   1.597   2.134   2.050 -0.0889  0.1578 -0.2718
   51SOL    HW1  152   1.539   2.061   2.030 -0.2609 -0.4729  2.1839
   51SOL    HW2  153   1.539   2.204   2.080  0.2880  0.0996  0.6197
   52SOL     OW  154   1.273   1.589   2.357  0.2275 -0.1156 -0.1174
   52SOL    HW1  155   1.275   1.675   2.317 -0.9609  0.3096  0.6739
   52SOL    HW2  156   1.332   1.596   2.433 -0.3700  0.2009  0.3188
   53SOL     OW  157   2.993   2.245   0.195 -0.1032 -0.1921  0.0732
   53SOL    HW1  158   2.920   2.183   0.191  1.1553 -1.6958 -0.7033
   53SOL    HW2  159   3.063   2.195   0.238  0.5193  1.1712  0.6809
   54SOL     OW  160   1.228   2.425   1.407  0.2602 -0.0355  0.2749
   54SOL    HW1  161   1.206   2.478   1.484  0.7421  1.1794 -0.3830
   54SOL    HW2  162   1.185   2.470   1.334  0.1607 -0.9266 -0.2265
   55SOL     OW  163   0.435   1.309   2.200  0.3797 -0.0490  0.1420
   55SOL    HW1  164   0.395   1.284   2.283  0.6055  0.6403  0.4608
   55SOL    HW2  165   0.366   1.355   2.153  0.7712  1.1267  0.6858
   56SOL     OW  166   0.734   0.598   2.976  0.3670  0.2579  0.4612
   56SOL    HW1  167   0.726   0.508   3.009 -1.3187 -0.9498 -2.8646
   56SOL    HW2  168   0.792   0.591   2.900  0.1836  2.0148  0.1124
   57SOL     OW  169   2.525   2.041   1.463 -0.1986  0.1281 -0.2172
   57SOL    HW1  170   2.569   1.996   1.535 -0.3759 -0.5078 -0.5005
   57SOL    HW2  171   2.513   2.130   1.495 -5.0499 -1.2560  2.8001
   58SOL     OW  172   3.003   1.105   2.341 -0.4511  0.6783  0.1306
   58SOL    HW1  173   3.058   1.118   2.264 -1.0987 -1.6225 -0.7984
   58SOL    HW2  174   2.916   1.135   2.314 -0.2624  1.8052  0.7030
   59SOL     OW  175   0.846   1.755   2.191  0.2463  0.1096 -0.3436
   59SOL    HW1  176   0.893   1.727   2.270 -1.4391 -1.2554  0.2410
   59SOL    HW2  177   0.914   1.765   2.125  1.9945  3.1072  1.6514
   60SOL     OW  178   2.637   0.920   1.049 -0.6323  0.4417  0.5865
   60SOL    HW1  179   2.584   0.841   1.041  2.1739 -1.5558 -0.2805
   60SOL    HW2  180   2.601   0.980   0.984 -2.1496 -0.5769  0.4436
   61SOL     OW  181   0.202   0.144   0.438 -0.3312  0.4826 -0.3914
   61SOL    HW1  182   0.192   0.086   0.363  0.2496  0.0340 -0.1323
   61SOL    HW2  183   0.189   0.232   0.402  0.5184  0.3185 -1.1384
   62SOL     OW  184   1.217   1.112   2.685 -0.2600  0.2532 -0.0549
   62SOL    HW1  185   1.149   1.051   2.657 -1.1075  1.8848 -1.7325
   62SOL    HW2  186   1.201   1.191   2.634  2.1917  1.1059  0.3767
   63SOL     OW  187   2.873   2.833   1.267 -0.2013  0.2436  0.5341
   63SOL    HW1  188   2.870   2.832   1.171  1.7386  0.1955  0.4336
   63SOL    HW2  189   2.826   2.754   1.294  0.4219 -0.4820 -0.4468
   64SOL     OW  190   0.670   2.304   0.586 -0.3488  0.0688 -0.3729
   64SOL    HW1  191   0.722   2.330   0.662 -0.5932  0.4349 -0.3248
   64SOL    HW2  192   0.625   2.385   0.560  1.4357  0.5057 -2.2750
   65SOL     OW  193   1.516   1.150   1.383  0.1998 -0.5892  0.0498
   65SOL    HW1  194   1.589   1.165   1.323  0.6347 -0.8031  0.5204
   65SOL    HW2  195   1.460   1.086   1.338 -0.2774  0.3917 -0.7939
   66SOL     OW  196   1.533   2.710   2.232  0.0038  0.0666  0.2989
   66SOL    HW1  197   1.574   2.680   2.313  0.2288  0.1853  0.2304
   66SOL    HW2  198   1.486   2.790   2.256  0.3361  0.2781  0.2446
   67SOL     OW  199   2.302   1.930   1.073 -0.1068  0.0799 -0.1243
   67SOL    HW1  200   2.333   1.890   1.154 -0.8210 -0.4245 -0.0905
   67SOL    HW2  201   2.217   1.888   1.057 -0.5084  1.0267 -0.5064
   68SOL     OW  202   2.873   1.476   1.268  0.0473 -0.3626 -0.0739
   68SOL    HW1  203   2.942   1.540   1.287  0.9099 -0.7047 -1.8167
   68SOL    HW2  204   2.827   1.513   1.192  0.1858 -1.5317 -0.7414
   69SOL     OW  205   2.716   0.954   1.897  0.7633 -0.1986 -0.4499
   69SOL    HW1  206   2.659   1.005   1.839  1.2139  0.8409  0.0005
   69SOL    HW2  207   2.798   0.945   1.849  1.3300  1.1414  0.2135
   70SOL     OW  208   0.432   0.546   2.616 -0.4275  0.1488  0.3890
   70SOL    HW1  209   0.455   0.456   2.642  1.5021  0.3369 -0.4786
   70SOL    HW2  210   0.463   0.600   2.688 -0.2247  0.2344  0.2373
   71SOL     OW  211   0.480   1.775   1.539 -0.0622 -0.7774 -0.0135
   71SOL    HW1  212   0.420   1.710   1.577  0.7093 -2.0584 -0.9169
   71SOL    HW2  213   0.541   1.794   1.610 -1.2110  0.1934  0.7702
   72SOL     OW  214   2.378   0.595   1.690  0.2822  0.0097  0.3477
   72SOL    HW1  215   2.456   0.647   1.673  0.2794 -0.4936 -1.4696
   72SOL    HW2  216   2.399   0.508   1.656 -0.1456 -0.8704  2.2239
   73SOL     OW  217   2.777   1.067   0.318  0.2142  0.5795 -0.1186
   73SOL    HW1  218   2.747   0.979   0.340 -0.4845  0.5621 -1.0582
   73SOL    HW2  219   2.871   1.057   0.300  0.6063  0.4303  1.7977
   74SOL     OW  220   0.673   0.107   1.460 -0.3780  0.2986  0.1847
   74SOL    HW1  221   0.745   0.102   1.523  0.4578  0.8374 -0.7131
   74SOL    HW2  222   0.706   0.162   1.389 -0.9484 -1.0902 -1.2109
   75SOL     OW  223   2.027   1.274   1.754 -0.2494  0.2442 -0.2623
   75SOL    HW1  224   1.982   1.256   1.671  0.6802 -1.2727 -0.4779
   75SOL    HW2  225   2.083   1.349   1.735 -0.6534  0.4226 -0.7706
   76SOL     OW  226   0.440   2.767   2.453  0.4723  0.2572  0.3364
   76SOL    HW1  227   0.478   2.791   2.537 -0.8791 -1.7680  1.6425
   76SOL    HW2  228   0.485   2.686   2.429 -0.5090 -0.2486  0.1418
   77SOL     OW  229   0.467   2.245   1.424  0.1490  0.3010  0.1524
   77SOL    HW1  230   0.427   2.314   1.476 -0.0112  0.1069  0.2846
   77SOL    HW2  231   0.397   2.213   1.367 -1.4979 -3.5805  3.8298
   78SOL     OW  232   0.324   1.785   1.306 -0.5534 -0.7415 -0.1525
   78SOL    HW1  233   0.392   1.794   1.240 -2.8500  1.8463 -2.4141
   78SOL    HW2  234   0.370   1.795   1.389  2.3125 -3.1360 -1.2991
   79SOL     OW  235   1.341   1.238   2.107 -0.5152 -0.0343 -0.3806
   79SOL    HW1  236   1.384   1.321   2.085 -0.9082 -0.1681 -1.7603
   79SOL    HW2  237   1.349   1.231   2.202 -1.0789  1.9159 -0.1552
   80SOL     OW  238   2.909   2.212   2.770  0.1797 -0.0319 -0.3319
   80SOL    HW1  239   2.857   2.279   2.815 -1.0401 -0.4782 -1.0304
   80SOL    HW2  240   2.846   2.144   2.747  1.2189 -0.9481 -0.5480
   81SOL     OW  241   0.865   0.785   1.441  0.2748  0.4924 -0.3210
   81SOL    HW1  242   0.818   0.703   1.429  0.8286 -0.4280  2.9360
   81SOL    HW2  243   0.860   0.828   1.356 -4.1791 -0.6637 -0.8849
   82SOL     OW  244   2.598   0.646   2.907 -0.5624 -0.4472 -0.2960
   82SOL    HW1  245   2.642   0.584   2.848 -1.9265  1.0053 -3.0749
   82SOL    HW2  246   2.669   0.695   2.948  0.4828 -2.4526  0.3968
   83SOL     OW  247   2.316   2.564   1.236  0.5629 -0.3840 -0.3326
   83SOL    HW1  248   2.359   2.491   1.192  1.7431  0.1495 -0.0978
   83SOL    HW2  249   2.225   2.536   1.244  1.1536 -2.2527  0.5993
   84SOL     OW  250   1.824   1.688   0.889  0.1339  0.1599  0.5380
   84SOL    HW1  251   1.736   1.698   0.852 -0.0407  2.2318  1.3883
   84SOL    HW2  252   1.874   1.643   0.821 -0.7297  1.8918 -1.3375
   85SOL     OW  253   1.281   2.815   1.258  0.2324 -0.2109  0.8995
   85SOL    HW1  254   1.239   2.879   1.200  2.4268  2.1466  1.7051
   85SOL    HW2  255   1.262   2.846   1.346  1.1586 -0.7807  1.3119
   86SOL     OW  256   1.453   0.246   2.695  0.6121 -0.5112 -0.3032
   86SOL    HW1  257   1.490   0.235   2.608  2.0569  1.9183 -0.0962
   86SOL    HW2  258   1.525   0.226   2.755  1.3381  2.8959  0.1415
   87SOL     OW  259   1.988   1.345   2.245  0.2774  0.4551 -0.1279
   87SOL    HW1  260   1.938   1.319   2.167  0.1924  2.2625 -0.7416
   87SOL    HW2  261   1.988   1.268   2.301 -1.6151 -0.1891 -0.9309
   88SOL     OW  262   2.014   0.520   2.068 -0.2060  0.0715  0.0757
   88SOL    HW1  263   2.094   0.531   2.017 -1.6293 -0.8182 -2.5055
   88SOL    HW2  264   1.966   0.602   2.056 -0.9504 -0.4698 -0.8841
   89SOL     OW  265   2.995   1.962   1.946  0.4278  0.1470  0.5421
   89SOL    HW1  266   2.993   1.889   2.008  3.1433  0.6411  1.3365
   89SOL    HW2  267   2.962   2.036   1.997 -2.4445 -0.4101 -0.2989
   90SOL     OW  268   2.816   1.589   2.130  0.2268 -0.1403 -0.0914
   90SOL    HW1  269   2.896   1.577   2.079 -0.4033 -0.4508 -1.0387
   90SOL    HW2  270   2.763   1.512   2.110  0.4457 -0.8984  2.0044
   91SOL     OW  271   0.387   1.138   1.983 -0.2765  0.5880  0.6007
   91SOL    HW1  272   0.333   1.210   1.951 -0.3729  0.6136  0.8202
   91SOL    HW2  273   0.441   1.177   2.052  0.8391  0.8382 -0.3767
   92SOL     OW  274   0.844   1.176   0.302  0.0496  0.1242  0.2190
   92SOL    HW1  275   0.769   1.230   0.275 -0.1024 -0.5825 -0.8473
   92SOL    HW2  276   0.908   1.239   0.335 -0.6524  0.8281  0.2747
   93SOL     OW  277   1.926   0.704   1.800  0.4526 -0.4339 -0.2674
   93SOL    HW1  278   1.850   0.697   1.743  0.0448  1.1806  0.0294
   93SOL    HW2  279   2.000   0.714   1.740  0.0291  1.2535 -0.5507
   94SOL     OW  280   0.660   1.688   0.577 -0.4829  0.2745 -0.6323
   94SOL    HW1  281   0.704   1.773   0.566 -0.3685  0.6051  1.8211
   94SOL    HW2  282   0.569   1.704   0.551 -1.4104  2.2849  3.1314
   95SOL     OW  283   0.366   1.940   2.158 -0.4468 -0.2375 -0.1180
   95SOL    HW1  284   0.325   2.023   2.182 -1.2668 -1.1961  2.0458
   95SOL    HW2  285   0.322   1.914   2.077  1.1758  2.2840 -1.9652
   96SOL     OW  286   0.456   0.579   0.081 -0.0983 -0.1272  0.0619
   96SOL    HW1  287   0.482   0.599  -0.009  2.4176 -0.1411  0.6969
   96SOL    HW2  288   0.423   0.662   0.116 -2.3755 -0.4213 -1.1855
   97SOL     OW  289   2.944   1.900   1.418 -0.1924 -0.5371 -0.4971
   97SOL    HW1  290   2.957   1.917   1.512  0.9478 -0.5456 -0.6334
   97SOL    HW2  291   2.869   1.954   1.394 -1.2029 -1.3996  0.6576
   98SOL     OW  292   0.231   0.026   1.785 -0.5151  0.1258 -0.3725
   98SOL    HW1  293   0.315   0.055   1.750 -0.0093 -0.3228  0.4290
   98SOL    HW2  294   0.190  -0.023   1.714  0.0868  0.0016 -0.6348
   99SOL     OW  295   2.566   0.543   2.200  0.1079  0.1917  0.3063
   99SOL    HW1  296   2.614   0.543   2.283 -0.0609 -0.7412  0.4049
   99SOL    HW2  297   2.587   0.629   2.161  2.3002 -0.3593  0.1030
  100SOL     OW  298   0.079   0.019   1.028 -0.3144 -0.1400  0.6036
  100SOL    HW1  299   0.100   0.029   1.121  0.7914  0.1400  0.3372
  100SOL    HW2  300   0.164   0.019   0.984 -0.6763 -2.6002 -0.2057
  101SOL     OW  301   2.159   1.921   0.469  0.3415 -0.4759 -0.1043
  101SOL    HW1  302   2.111   1.948   0.547 -0.1015 -0.7685 -0.2735
  101SOL    HW2  303   2.109   1.956   0.396  0.4989 -0.6006 -0.2745
  102SOL     OW  304   2.135   0.470   0.930  0.2734  0.2325  0.2745
  102SOL    HW1  305   2.128   0.564   0.949 -1.5227  0.6673 -2.0550
  102SOL    HW2  306   2.056   0.432   0.968  2.1406 -0.8708  3.3677
  103SOL     OW  307   1.828   0.436   1.675  0.4795 -0.2787  0.0514
  103SOL    HW1  308   1.884   0.365   1.643  0.6476  0.0207 -0.3159
  103SOL    HW2  309   1.859   0.452   1.764 -0.1319 -1.2596  0.4627
  104SOL     OW  310   0.720   1.101   2.911 -0.0584 -0.0076 -0.0914
  104SOL    HW1  311   0.812   1.109   2.938 -0.6751 -0.4158  2.3977
  104SOL    HW2  312   0.692   1.018   2.950 -1.0118 -0.8713 -2.4511
  105SOL     OW  313   2.752   1.072  -0.032  0.1208 -0.1796  0.1849
  105SOL    HW1  314   2.686   1.027   0.020  1.8093 -2.2462  0.6570
  105SOL    HW2  315   2.834   1.059   0.015  0.7059  4.1645  0.7835
  106SOL     OW  316   0.278   1.996   1.909  0.4771 -0.1795  0.7340
  106SOL    HW1  317   0.185   1.984   1.929 -0.3287  1.2234 -1.7733
  106SOL    HW2  318   0.281   2.003   1.814  2.7387  2.6631  0.8927
  107SOL     OW  319   2.323   1.023   1.640 -0.1242  0.3731 -0.0824
  107SOL    HW1  320   2.382   0.977   1.580 -0.4921  0.1391 -0.2694
  107SOL    HW2  321   2.237   1.016   1.599 -0.6598 -1.0590  1.1691
  108SOL     OW  322   1.443   2.538   0.362 -0.0827  0.0622  0.2489
  108SOL    HW1  323   1.496   2.464   0.391 -0.7784  0.0160  1.4783
  108SOL    HW2  324   1.465   2.548   0.269 -1.0834 -2.6717 -0.3925
  109SOL     OW  325   0.461   1.975   1.139  0.7677 -0.4208 -0.5634
  109SOL    HW1  326   0.552   1.951   1.158  1.1270  0.6404 -0.8390
  109SOL    HW2  327   0.468   2.044   1.073 -0.2095  0.1727 -0.0732
  110SOL     OW  328   2.131   1.535   2.903  0.1111 -0.3992 -0.3591
  110SOL    HW1  329   2.153   1.616   2.950  1.2025 -0.6511 -0.4238
  110SOL    HW2  330   2.153   1.465   2.964 -2.2827 -0.6624  0.3175
  111SOL     OW  331   2.814   0.708   0.364 -0.2489  0.1710 -0.1981
  111SOL    HW1  332   2.896   0.659   0.354  0.3323  1.3006 -1.0407
  111SOL    HW2  333   2.806   0.720   0.459  1.2655  1.2010 -0.1670
  112SOL     OW  334   2.168   0.163   1.036 -0.3419 -0.0411  0.3165
  112SOL    HW1  335   2.238   0.206   1.084 -0.0796 -0.0855 -0.0229
  112SOL    HW2  336   2.207   0.140   0.951 -1.1561  1.2152 -0.4380
  113SOL     OW  337   1.277   2.233   0.423  0.1457  0.1298 -0.1393
  113SOL    HW1  338   1.243   2.322   0.413 -0.9082 -0.1852  0.5912
  113SOL    HW2  339   1.289   2.221   0.517 -0.0745 -0.6257 -0.1972
  114SOL     OW  340   1.366   1.321   2.367  0.4523 -0.0957  1.0707
  114SOL    HW1  341   1.460   1.327   2.347  0.4830  0.9841  1.4660
  114SOL    HW2  342   1.334   1.410   2.356 -0.5788 -0.4874  0.7689
  115SOL     OW  343   2.053   0.217   0.101  0.1068 -0.3837  0.0209
  115SOL    HW1  344   2.037   0.262   0.017  2.8161 -0.0648 -0.4102
  115SOL    HW2  345   1.993   0.143   0.100 -1.6361  0.9400 -1.0741
  116SOL     OW  346   2.497   1.499   2.627  0.0630 -0.9287 -0.2853
  116SOL    HW1  347   2.516   1.537   2.712  0.3737  1.7902 -1.4835
  116SOL    HW2  348   2.582   1.470   2.593  0.4584  0.9421 -0.9689
  117SOL     OW  349   2.607   1.782   1.961 -0.0688  0.1504 -0.6733
  117SOL    HW1  350   2.541   1.732   2.010  1.4382 -2.0275 -0.7542
  117SOL    HW2  351   2.627   1.729   1.884  1.7817  0.7273 -0.6489
  118SOL     OW  352   0.539   1.830   0.830  0.6557 -1.0136  0.3247
  118SOL    HW1  353   0.452   1.826   0.790  0.3469 -0.9652  0.9860
  118SOL    HW2  354   0.581   1.905   0.789  0.4535 -1.1456 -0.1317
  119SOL     OW  355   0.050   2.488   1.510 -0.2623  0.2837 -0.0792
  119SOL    HW1  356   0.053   2.393   1.510 -2.8544  0.1092  0.8449
  119SOL    HW2  357   0.059   2.512   1.418  0.6169 -0.8247 -0.3020
  120SOL     OW  358   2.388   1.039   2.476  0.0194 -0.3366 -0.8726
  120SOL    HW1  359   2.326   1.070   2.409  1.3734  0.4644 -1.8169
  120SOL    HW2  360   2.470   1.081   2.452  0.9049 -1.2928  0.4125
  121SOL     OW  361   0.792   2.020   1.805  0.1626  0.1495  0.0608
  121SOL    HW1  362   0.721   2.069   1.846  0.4604 -0.5649  1.5095
  121SOL    HW2  363   0.771   2.020   1.712 -0.5543  1.8362  0.1897
  122SOL     OW  364   0.347   1.159   2.652  0.4615  0.2948 -0.2473
  122SOL    HW1  365   0.281   1.101   2.615  1.6021 -2.0697  1.2194
  122SOL    HW2  366   0.301   1.243   2.664 -1.9836 -0.9709 -0.1810
  123SOL     OW  367   2.574   2.867   0.244 -0.0213  0.2382  0.1899
  123SOL    HW1  368   2.520   2.813   0.186 -0.8415  1.8510 -0.6160
  123SOL    HW2  369   2.639   2.907   0.186  0.6809 -0.0128  0.7980
  124SOL     OW  370   0.526   0.973   1.656 -0.1121 -0.1912  0.9049
  124SOL    HW1  371   0.490   0.921   1.584  0.6431  0.3663  0.0944
  124SOL    HW2  372   0.597   0.920   1.690  0.2254 -0.0016  0.5159
  125SOL     OW  373   1.944   1.567   0.691 -0.1907 -0.8614  0.5574
  125SOL    HW1  374   1.921   1.598   0.604 -0.0527 -0.3507  0.6967
  125SOL    HW2  375   1.999   1.491   0.677  1.2390  0.2000  0.1611
  126SOL     OW  376   2.420   1.624   1.468 -0.2225  0.4769  0.2307
  126SOL    HW1  377   2.358   1.564   1.509  0.1659 -0.0178  0.1102
  126SOL    HW2  378   2.504   1.578   1.472  0.0279  0.8952 -0.1198
  127SOL     OW  379   0.259   0.683   2.086  0.4631  0.0252 -0.2917
  127SOL    HW1  380   0.234   0.775   2.096 -0.2243  0.0369 -1.8456
  127SOL    HW2  381   0.233   0.643   2.169 -1.4957  0.7632 -0.4942
  128SOL     OW  382   2.572   2.861   2.797 -0.7662 -0.5295  0.1084
  128SOL    HW1  383   2.634   2.789   2.781  0.2161  0.3652 -0.1841
  128SOL    HW2  384   2.551   2.895   2.710  2.6328  2.7029  0.3340
  129SOL     OW  385   1.433   2.722   2.852  0.6030 -0.1270 -0.5429
  129SOL    HW1  386   1.370   2.760   2.913  0.0829 -1.6820 -0.0792
  129SOL    HW2  387   1.381   2.696   2.777  0.8243 -0.6385 -0.5209
  130SOL     OW  388   0.972   1.866   2.490  0.1706  0.2196  0.5604
  130SOL    HW1  389   0.997   1.774   2.479  0.0195  0.2756 -0.2984
  130SOL    HW2  390   1.037   1.915   2.439 -0.8343  0.4615 -0.5176
  131SOL     OW  391   1.658   0.259   1.074 -0.3815  0.2373 -0.0982
  131SOL    HW1  392   1.614   0.304   1.146  1.0763 -0.3874  1.2432
  131SOL    HW2  393   1.747   0.296   1.074  0.0376 -0.7492 -0.6768
  132SOL     OW  394   2.953   0.271   0.884  0.3646  0.2040  0.0571
  132SOL    HW1  395   2.928   0.255   0.975 -2.0246  1.6251 -0.2478
  132SOL    HW2  396   2.954   0.184   0.844 -1.8436 -0.2031  0.7530
  133SOL     OW  397   1.912   2.252   0.753 -1.0056 -0.1832  0.5797
  133SOL    HW1  398   1.984   2.190   0.742 -1.0050 -0.0877  0.0386
  133SOL    HW2  399   1.954   2.337   0.763 -1.0138 -0.2422  1.1187
  134SOL     OW  400   2.228   2.191   2.608  0.3209  0.0872 -0.5107
  134SOL    HW1  401   2.144   2.145   2.599 -0.1027  1.0656 -2.0231
  134SOL    HW2  402   2.293   2.125   2.584  0.1139 -0.9899  1.6976
  135SOL     OW  403   1.537   0.786   2.010  0.1204  0.5151 -0.8754
  135SOL    HW1  404   1.548   0.878   1.988  1.1430  0.6324  0.0856
  135SOL    HW2  405   1.473   0.785   2.081  0.1308  0.4794 -0.8665
  136SOL     OW  406   2.700   1.329   2.043  0.4685  0.3601 -0.0785
  136SOL    HW1  407   2.632   1.369   2.098  1.7410  2.3812  0.1384
  136SOL    HW2  408   2.718   1.245   2.084 -0.5855  0.6135  0.9449
  137SOL     OW  409   1.849   1.614   0.445  0.2769 -0.6047  0.3908
  137SOL    HW1  410   1.904   1.593   0.370  0.1092 -0.9436  0.3612
  137SOL    HW2  411   1.831   1.708   0.435 -0.7179 -0.8782 -0.6560
  138SOL     OW  412   1.599   2.082   2.932 -0.6021 -0.4425  0.5149
  138SOL    HW1  413   1.679   2.040   2.902 -1.1439 -0.1589 -1.4122
  138SOL    HW2  414   1.544   2.010   2.963  0.4871 -0.6083  2.2393
  139SOL     OW  415   2.739   0.609   2.382  0.1152  0.2471  0.2169
  139SOL    HW1  416   2.722   0.662   2.460  0.0902 -0.4095  0.6691
  139SOL    HW2  417   2.782   0.530   2.416  3.6219  1.5772 -0.8125
  140SOL     OW  418   1.891   1.585   1.968 -0.3486  0.1646 -0.0475
  140SOL    HW1  419   1.841   1.592   1.887  1.4962 -0.3087 -1.2810
  140SOL    HW2  420   1.884   1.493   1.992  0.7731 -0.1253 -0.8003
  141SOL     OW  421   2.443   2.018   2.522  1.1017  0.1756  0.6054
  141SOL    HW1  422   2.460   1.944   2.580 -0.4516 -1.8248 -1.2843
  141SOL    HW2  423   2.480   1.991   2.438 -1.6373  0.3388 -0.7897
  142SOL     OW  424   0.674   0.767   2.236 -0.3941 -0.1775  0.1257
  142SOL    HW1  425   0.659   0.825   2.162  0.3242  0.4885  0.4811
  142SOL    HW2  426   0.589   0.762   2.281 -0.2797  1.2754  0.5526
  143SOL     OW  427   1.706   0.420   2.949 -0.4265  0.2749 -0.1338
  143SOL    HW1  428   1.655   0.365   3.010  0.3433  0.9938  1.1997
  143SOL    HW2  429   1.652   0.498   2.937 -0.4963  0.2098 -0.2534
  144SOL     OW  430   1.973   2.342   2.463  0.7398  0.1291 -0.3961
  144SOL    HW1  431   1.973   2.277   2.532 -4.1339 -1.6071 -1.5970
  144SOL    HW2  432   2.010   2.298   2.387  1.5013  0.3194 -0.1397
  145SOL     OW  433   0.780   2.024   0.964 -0.3137 -0.3758  0.4506
  145SOL    HW1  434   0.744   1.970   1.035 -1.3606  1.0978  1.0773
  145SOL    HW2  435   0.764   2.114   0.991 -1.9429  0.2619 -2.2481
  146SOL     OW  436   0.792   2.354   2.461  0.0432 -0.0613  0.2906
  146SOL    HW1  437   0.843   2.358   2.380  3.4575  0.9407  2.2796
  146SOL    HW2  438   0.789   2.261   2.483 -1.2369 -0.3822 -1.0968
  147SOL     OW  439   0.888   0.857   1.173  0.0223  0.4527  0.1633
  147SOL    HW1  440   0.972   0.813   1.171 -0.4338 -0.5687 -3.3342
  147SOL    HW2  441   0.901   0.936   1.121 -1.2103  0.0739 -0.7756
  148SOL     OW  442   0.095   1.978   0.375 -0.6135 -0.2727  0.7985
  148SOL    HW1  443   0.070   1.893   0.411 -0.9654 -0.3945  0.2679
  148SOL    HW2  444   0.181   1.964   0.337 -0.4016 -0.2337  1.2480
  149SOL     OW  445   1.434   2.099   0.203  0.4168  0.0682 -0.1716
  149SOL    HW1  446   1.501   2.165   0.224 -0.1529  0.2019  1.3290
  149SOL    HW2  447   1.359   2.124   0.256 -0.8183 -0.1529 -1.7480
  150SOL     OW  448   1.730   0.869   0.838  0.4014 -0.3252  0.3040
  150SOL    HW1  449   1.798   0.823   0.887 -0.2750 -0.6416  0.9609
  150SOL    HW2  450   1.722   0.820   0.756  0.7653 -0.4488  0.3417
  151SOL     OW  451   0.748   0.192   2.026  0.3770 -0.0988  0.5525
  151SOL    HW1  452   0.701   0.270   1.998  0.3576 -0.3114 -0.0244
  151SOL    HW2  453   0.741   0.131   1.952 -0.8512 -1.2003  1.5250
  152SOL     OW  454   0.879   2.532   1.435 -0.0221 -0.2785  0.0709
  152SOL    HW1  455   0.831   2.578   1.504  0.2078  1.4129 -0.8601
  152SOL    HW2  456   0.945   2.595   1.404  1.5163 -1.8495 -0.0395
  153SOL     OW  457   1.167   0.882   2.913 -0.3107 -0.1650  0.0336
  153SOL    HW1  458   1.138   0.950   2.973  0.8282  0.1256  0.2670
  153SOL    HW2  459   1.099   0.879   2.845 -0.9370  0.4120  0.6269
  154SOL     OW  460   1.929   0.295   1.065 -0.0492 -0.2705  0.7356
  154SOL    HW1  461   1.929   0.318   1.158 -0.3686 -0.3988  0.7686
  154SOL    HW2  462   2.001   0.231   1.057 -0.0556 -0.2998  0.9042
  155SOL     OW  463   1.044   0.982   1.516 -0.1901 -0.2918 -0.2209
  155SOL    HW1  464   1.069   1.025   1.435  0.1200 -0.2820 -0.1254
  155SOL    HW2  465   0.988   0.909   1.490 -0.1648 -0.2326 -0.4357
  156SOL     OW  466   0.187   0.323   1.217 -0.4348  0.1955  0.3319
  156SOL    HW1  467   0.103   0.302   1.257  0.8419 -2.6125  1.8784
  156SOL    HW2  468   0.169   0.325   1.123 -1.9772 -2.1430  0.4845
  157SOL     OW  469   1.696   2.818   0.177  0.0522  0.5849  0.1944
  157SOL    HW1  470   1.657   2.742   0.133  0.3926  1.4202 -1.6178
  157SOL    HW2  471   1.628   2.848   0.237  0.5204 -2.1587  2.2961
  158SOL     OW  472   2.488   1.258   0.562 -0.2813 -0.2189  0.4577
  158SOL    HW1  473   2.568   1.310   0.571  0.1794 -0.1876 -2.6474
  158SOL    HW2  474   2.445   1.265   0.647  0.8731  3.3882  0.9118
  159SOL     OW  475   0.026   1.125   0.867 -0.6826 -0.0569  0.4113
  159SOL    HW1  476  -0.052   1.129   0.812 -0.3784  0.0322 -0.0125
  159SOL    HW2  477   0.098   1.105   0.807  0.0445  2.3205  0.3747
  160SOL     OW  478   2.915   0.780   2.802 -0.0397 -0.2595 -0.0072
  160SOL    HW1  479   2.889   0.691   2.780  0.5157 -0.1939 -1.0413
  160SOL    HW2  480   2.833   0.829   2.809 -0.3250 -0.7496  0.1039
  161SOL     OW  481   2.489   0.109   1.439 -0.0768 -0.3107 -0.1273
  161SOL    HW1  482   2.576   0.079   1.412 -0.0521  0.1865 -0.6263
  161SOL    HW2  483   2.458   0.042   1.499 -0.0138 -1.3071 -1.1758
  162SOL     OW  484   1.169   2.629   1.610 -0.1551 -0.2495  0.3986
  162SOL    HW1  485   1.249   2.674   1.580  0.1535 -0.0897  1.4179
  162SOL    HW2  486   1.183   2.617   1.704 -1.5031  0.1145  0.6562
  163SOL     OW  487   1.765   1.864   0.430 -0.1933 -0.0434 -0.2723
  163SOL    HW1  488   1.672   1.844   0.419 -0.6618  2.2179 -1.1583
  163SOL    HW2  489   1.779   1.863   0.525 -0.6509 -2.0739 -0.1820
  164SOL     OW  490  -0.003   0.952   0.069 -0.3462 -0.6442  0.3543
  164SOL    HW1  491   0.006   0.990  -0.019 -0.2013  2.3176  1.5175
  164SOL    HW2  492   0.075   0.899   0.081  0.1445 -0.2445 -0.9379
  165SOL     OW  493   0.927   1.691   1.935  0.5519 -0.0145 -0.2537
  165SOL    HW1  494   0.832   1.695   1.929  0.4568 -0.7219  0.6017
  165SOL    HW2  495   0.958   1.710   1.846 -0.4485 -1.5913 -0.9842
  166SOL     OW  496   1.744   2.154   0.940  0.3169  0.1048  0.2733
  166SOL    HW1  497   1.789   2.180   1.020  2.4521 -1.0784 -0.4689
  166SOL    HW2  498   1.777   2.214   0.873 -0.1870  0.0308 -0.0472
  167SOL     OW  499   2.718   2.403   2.558 -0.0451  0.2668  0.2437
  167SOL    HW1  500   2.769   2.387   2.478 -1.0319 -0.6378 -0.2160
  167SOL    HW2  501   2.709   2.317   2.599 -0.5357  0.5461  0.7305
  168SOL     OW  502   1.099   1.312   2.563 -0.1857 -0.0707 -0.4139
  168SOL    HW1  503   1.108   1.391   2.510 -1.2895 -0.7680 -1.7127
  168SOL    HW2  504   1.007   1.311   2.590  0.0691 -0.3809  0.4579
  169SOL     OW  505   0.815   1.709   0.928 -0.6325 -0.3275  0.2032
  169SOL    HW1  506   0.780   1.620   0.923  0.0222 -0.6725  1.2802
  169SOL    HW2  507   0.741   1.763   0.954 -0.5209 -0.9812  2.0584
  170SOL     OW  508   2.314   0.521   2.325 -0.2767  0.0025  0.1877
  170SOL    HW1  509   2.280   0.606   2.298 -0.0383 -0.3230 -1.2519
  170SOL    HW2  510   2.391   0.507   2.269 -0.8569 -1.5446 -0.2827
  171SOL     OW  511   0.634   0.684   1.718  0.0406 -0.1489 -0.1348
  171SOL    HW1  512   0.619   0.637   1.799 -1.1067  1.3321  0.5639
  171SOL    HW2  513   0.589   0.633   1.651  1.6549 -1.8041 -0.0301
  172SOL     OW  514   2.633   1.949   0.052  0.2481 -0.0775  0.2288
  172SOL    HW1  515   2.656   1.933  -0.040 -1.1171 -0.7997 -0.0171
  172SOL    HW2  516   2.537   1.955   0.052  0.2251 -0.1479  1.6118
  173SOL     OW  517   1.209   0.187   1.089 -0.3322 -0.5091  0.1520
  173SOL    HW1  518   1.247   0.243   1.022 -0.6957 -0.3354  0.0871
  173SOL    HW2  519   1.284   0.153   1.138 -0.1500  1.2677  1.1996
  174SOL     OW  520   1.431   1.011   2.296  0.4770  0.2298 -0.3698
  174SOL    HW1  521   1.431   1.095   2.343  1.2570  0.3813 -0.6244
  174SOL    HW2  522   1.414   0.946   2.364  1.6665  0.4399  0.1521
  175SOL     OW  523   2.864   0.528   1.721 -0.1130  0.4196 -0.0967
  175SOL    HW1  524   2.796   0.594   1.711 -0.6321 -0.2186 -0.8501
  175SOL    HW2  525   2.836   0.476   1.796 -0.3059  0.3441 -0.2197
  176SOL     OW  526   2.932   2.229   1.318 -0.4147  0.0778  0.0596
  176SOL    HW1  527   2.980   2.308   1.295  0.6026 -0.3107  0.7799
  176SOL    HW2  528   2.957   2.165   1.252 -1.9920  0.5943 -1.1068
  177SOL     OW  529   1.359   2.730   0.731 -0.3830  0.2138  0.3542
  177SOL    HW1  530   1.367   2.742   0.636  2.5099 -0.0384  0.4504
  177SOL    HW2  531   1.276   2.685   0.743 -0.2162 -0.9769 -2.2226
  178SOL     OW  532   1.454   1.526   2.073  0.4979 -0.3370  0.2160
  178SOL    HW1  533   1.362   1.532   2.098  0.5303 -1.4976  0.6990
  178SOL    HW2  534   1.494   1.605   2.108  0.0805 -0.7952  1.7990
  179SOL     OW  535   1.652   2.660   2.717  0.0159  0.0002 -0.9020
  179SOL    HW1  536   1.703   2.741   2.726  0.7058 -0.5133 -0.0003
  179SOL    HW2  537   1.572   2.676   2.767  0.1176  0.1601 -0.7891
  180SOL     OW  538   0.934   1.322   0.752  0.3208  0.0927  0.0963
  180SOL    HW1  539   0.895   1.346   0.667  3.0876 -2.3645 -2.0703
  180SOL    HW2  540   0.932   1.227   0.753  1.6389  0.0344  2.1678
  181SOL     OW  541   0.067   2.725   0.283  0.1205  0.7548 -0.5869
  181SOL    HW1  542   0.152   2.720   0.327  1.4255  0.4750 -2.9855
  181SOL    HW2  543   0.031   2.637   0.291  0.6410  0.5352 -0.6335
  182SOL     OW  544   0.406   0.333   0.228  0.1607 -0.2451  0.0345
  182SOL    HW1  545   0.447   0.401   0.175 -0.4485 -0.4479 -0.7082
  182SOL    HW2  546   0.333   0.376   0.271  2.1930  0.6428  2.9371
  183SOL     OW  547   0.608   1.587   1.339  0.0511  0.0533 -0.2074
  183SOL    HW1  548   0.537   1.631   1.293  2.3343  2.8584 -1.3257
  183SOL    HW2  549   0.617   1.635   1.421 -0.5563 -1.5639  0.8574
  184SOL     OW  550   2.119   1.019   2.931 -0.2939 -0.3953  0.2127
  184SOL    HW1  551   2.113   1.110   2.960 -0.0923 -0.7060  1.2529
  184SOL    HW2  552   2.050   1.010   2.864 -0.5590  0.4125  0.3705
  185SOL     OW  553   0.033   1.626   1.955 -0.0032  0.7046  0.6485
  185SOL    HW1  554  -0.017   1.576   1.890  0.0512  1.0682  0.3217
  185SOL    HW2  555   0.118   1.640   1.914 -0.0554  1.1592  0.6916
  186SOL     OW  556   0.360   1.460   0.515  0.0567  0.0587 -0.9710
  186SOL    HW1  557   0.395   1.494   0.598 -0.2747  0.2123 -0.8880
  186SOL    HW2  558   0.371   1.532   0.453 -1.5232  0.7156 -0.5607
  187SOL     OW  559   2.174   0.125   1.678 -0.1205  0.5797  0.1113
  187SOL    HW1  560   2.225   0.145   1.756  0.8384 -0.1328 -0.3137
  187SOL    HW2  561   2.196   0.034   1.657 -1.0705  0.4628 -0.4561
  188SOL     OW  562   2.032   1.218   2.726  0.4773  0.3507 -0.1395
  188SOL    HW1  563   2.002   1.145   2.673 -0.4299  1.5966 -1.4087
  188SOL    HW2  564   2.127   1.216   2.719  0.3758  1.3164 -3.0936
  189SOL     OW  565   1.741   1.145   1.195  0.2702 -0.3068  0.0088
  189SOL    HW1  566   1.800   1.217   1.173 -0.1659 -0.1616 -0.7569
  189SOL    HW2  567   1.721   1.104   1.110 -1.3859  0.1869  0.1204
  190SOL     OW  568   1.598   1.910   2.391 -0.2033 -0.0802 -0.5254
  190SOL    HW1  569   1.596   1.874   2.480  0.4671 -1.9982 -1.2228
  190SOL    HW2  570   1.661   1.981   2.395  0.5244 -0.7478  0.3427
  191SOL     OW  571   2.087   0.672   2.770  0.4292  0.2487  0.1510
  191SOL    HW1  572   2.121   0.647   2.856 -0.8906 -0.4500  0.5019
  191SOL    HW2  573   2.153   0.641   2.709  0.9607 -0.0698  0.8668
  192SOL     OW  574   1.694   2.450   0.669 -0.0113 -0.5002  0.1062
  192SOL    HW1  575   1.696   2.371   0.617 -1.0174 -0.6837  0.3273
  192SOL    HW2  576   1.619   2.439   0.728 -0.5437  0.8644 -0.2701
  193SOL     OW  577   2.321   2.781   1.058  0.3669 -0.5631 -0.2737
  193SOL    HW1  578   2.335   2.695   1.097  2.0288  0.2535  1.0677
  193SOL    HW2  579   2.337   2.843   1.130  1.5544  0.9275 -1.7360
  194SOL     OW  580   1.626   1.352   2.292  0.1776  0.2719  0.0187
  194SOL    HW1  581   1.661   1.288   2.230 -0.8617  0.7136 -1.0803
  194SOL    HW2  582   1.668   1.435   2.268 -0.6866  0.5695 -0.5482
  195SOL     OW  583   0.277   1.685   0.863 -0.2456  0.4518 -0.1802
  195SOL    HW1  584   0.236   1.762   0.903 -0.6511  0.3857 -0.4613
  195SOL    HW2  585   0.250   1.613   0.919  1.1252  0.6502  0.7941
  196SOL     OW  586   2.274   1.363   2.770  0.5866 -0.1547  0.3053
  196SOL    HW1  587   2.207   1.421   2.806  0.9193  0.1411  0.4647
  196SOL    HW2  588   2.341   1.423   2.736 -0.1957 -0.3879 -1.8037
  197SOL     OW  589   2.271   1.354   0.112  0.4720  0.4886  0.2700
  197SOL    HW1  590   2.317   1.436   0.093  1.1511 -0.0020 -0.2525
  197SOL    HW2  591   2.318   1.288   0.062 -1.7159  0.1788 -1.5677
  198SOL     OW  592   0.435   0.921   0.449  0.0309 -0.5453 -0.4517
  198SOL    HW1  593   0.419   0.895   0.359 -0.9334  0.3463 -0.5543
  198SOL    HW2  594   0.435   1.017   0.448 -0.9558 -0.5114  0.6405
  199SOL     OW  595   2.622   2.964   1.022  0.4200  0.8754  0.1073
  199SOL    HW1  596   2.613   2.871   1.005 -0.5988  0.8648  0.6599
  199SOL    HW2  597   2.577   3.007   0.949 -1.3581  0.8751  1.1607
  200SOL     OW  598   1.179   0.869   0.257  0.0839 -0.8260 -0.2517
  200SOL    HW1  599   1.201   0.832   0.343  0.9480  0.0726 -0.0611
  200SOL    HW2  600   1.256   0.922   0.234 -0.9913  0.6385 -0.6173
  201SOL     OW  601   2.987   0.635   0.784 -0.0583  0.7447 -0.5376
  201SOL    HW1  602   2.906   0.583   0.793  0.2817  0.2454 -0.2914
  201SOL    HW2  603   3.028   0.630   0.871  1.1690 -0.5910 -1.1404
  202SOL     OW  604   1.089   0.555   2.578  0.1679 -0.0192 -0.3323
  202SOL    HW1  605   1.100   0.521   2.489 -2.1808 -2.9108  0.3123
  202SOL    HW2  606   1.152   0.506   2.631 -1.3750 -1.5637  0.1780
  203SOL     OW  607   1.861   1.031   0.214  0.0477  0.1031 -0.4608
  203SOL    HW1  608   1.954   1.013   0.201  0.4919  0.5647  1.7467
  203SOL    HW2  609   1.840   0.991   0.298 -1.5429  0.7345 -0.5214
  204SOL     OW  610   1.044   2.549   1.029 -0.4392  0.0512  0.0892
  204SOL    HW1  611   0.968   2.600   1.000  0.2460 -0.1322 -2.2858
  204SOL    HW2  612   1.007   2.479   1.082 -1.7709  0.8243  0.2446
  205SOL     OW  613   0.751   0.663   2.495  0.0366  0.5632 -0.4223
  205SOL    HW1  614   0.798   0.669   2.412  0.2395 -0.0495 -0.3502
  205SOL    HW2  615   0.701   0.745   2.499 -0.2663  0.4337 -1.3252
  206SOL     OW  616   1.567   0.198   2.457 -0.2438 -0.6789 -0.2414
  206SOL    HW1  617   1.480   0.163   2.438 -0.1423 -0.5211 -1.0267
  206SOL    HW2  618   1.596   0.237   2.374  0.1284  0.2158  0.2955
  207SOL     OW  619   1.893   1.359   1.100 -0.0336 -0.3953 -0.6346
  207SOL    HW1  620   1.882   1.454   1.113  0.5882 -0.4741  0.5587
  207SOL    HW2  621   1.896   1.349   1.005  2.0277  1.0640 -0.8029
  208SOL     OW  622   2.912   2.688   2.365 -0.1193 -0.4749 -0.4865
  208SOL    HW1  623   2.974   2.658   2.432 -0.2799 -1.6212 -0.8194
  208SOL    HW2  624   2.957   2.760   2.321 -0.3639  0.8966  1.4131
  209SOL     OW  625   2.929   0.127   2.375  0.0453  0.1881 -0.0443
  209SOL    HW1  626   2.930   0.137   2.470 -1.3314 -0.4008  0.0603
  209SOL    HW2  627   2.839   0.148   2.349  0.8179  1.9794 -1.4370
  210SOL     OW  628   2.036   1.993   2.570  0.1122  0.0004 -0.0085
  210SOL    HW1  629   1.948   1.993   2.532 -0.2537 -1.0886  0.7874
  210SOL    HW2  630   2.052   1.902   2.595  1.4271  0.1966 -0.0255
  211SOL     OW  631   1.490   2.502   0.869 -0.0427  0.3257  0.2802
  211SOL    HW1  632   1.438   2.558   0.812 -0.9835 -1.2713 -0.5102
  211SOL    HW2  633   1.450   2.512   0.955 -0.5832  0.4156  0.0222
  212SOL     OW  634   1.781   2.923   2.023 -0.1584  0.2913 -0.4571
  212SOL    HW1  635   1.816   2.929   1.935 -0.4718 -2.0001 -0.8034
  212SOL    HW2  636   1.820   2.844   2.060 -2.6489 -0.7689  0.1606
  213SOL     OW  637   2.815   1.210   1.669 -0.0779 -0.3302 -0.0721
  213SOL    HW1  638   2.738   1.160   1.695 -0.1886  0.1210  0.4841
  213SOL    HW2  639   2.802   1.227   1.576 -0.0418 -1.3185 -0.2748
  214SOL     OW  640   1.184   0.294   2.272  0.0061  0.6827  0.6358
  214SOL    HW1  641   1.134   0.376   2.271 -0.3873  0.5690 -2.6555
  214SOL    HW2  642   1.118   0.227   2.257  0.5304 -0.1077  1.7601
  215SOL     OW  643   2.545   1.673   2.893 -0.5199  0.1597 -0.4408
  215SOL    HW1  644   2.549   1.602   2.957  1.1923  1.4542  0.9860
  215SOL    HW2  645   2.636   1.691   2.871 -0.7694  2.9689  0.4934
  216SOL     OW  646   0.894   2.213   0.306 -0.4048  0.4512  0.9585
  216SOL    HW1  647   0.884   2.308   0.316 -0.4203  0.5575 -0.0080
  216SOL    HW2  648   0.869   2.196   0.215  1.7567 -0.1696  0.4272
  217SOL     OW  649   2.629   2.181   0.626  0.0810 -0.4839 -0.4610
  217SOL    HW1  650   2.546   2.229   0.627  0.3178 -0.0645 -0.6493
  217SOL    HW2  651   2.682   2.223   0.694  0.0410 -0.9315 -0.1505
  218SOL     OW  652   2.653   1.325   0.303 -0.0087 -0.6630  0.4322
  218SOL    HW1  653   2.683   1.238   0.274  2.0998  0.4142 -0.8593
  218SOL    HW2  654   2.717   1.350   0.371 -1.8317 -0.9332  2.3535
  219SOL     OW  655   1.006   1.404   2.910 -0.1855 -0.2732 -0.1041
  219SOL    HW1  656   0.916   1.431   2.929  0.1703 -0.8919  2.8383
  219SOL    HW2  657   1.017   1.322   2.958  2.8690  1.3482  2.2528
  220SOL     OW  658   1.057   1.801   0.157 -0.4769  0.0616  0.7655
  220SOL    HW1  659   1.056   1.764   0.245 -1.1436 -0.9452  0.3490
  220SOL    HW2  660   1.079   1.894   0.170  1.2522 -0.4451  1.8243
  221SOL     OW  661   2.190   0.816   0.773  0.0481  0.9294 -0.1212
  221SOL    HW1  662   2.136   0.750   0.730  1.4146 -0.5784  0.3820
  221SOL    HW2  663   2.185   0.892   0.715 -1.7307  0.4821 -0.6110
  222SOL     OW  664   2.438   1.032   1.250  0.4782 -0.6388 -0.5272
  222SOL    HW1  665   2.418   1.114   1.204  1.1275  0.0304  0.3450
  222SOL    HW2  666   2.482   0.978   1.184  2.4603  0.7566 -0.4546
  223SOL     OW  667   2.253   1.597   1.111 -0.2686 -0.3782 -0.1154
  223SOL    HW1  668   2.345   1.585   1.132 -0.4312 -0.9112  0.3331
  223SOL    HW2  669   2.249   1.595   1.015  0.2711  0.3442 -0.1548
  224SOL     OW  670   0.361   2.052   2.999 -0.3523 -0.5846 -0.5475
  224SOL    HW1  671   0.271   2.067   2.969 -0.2465  0.7615 -0.2593
  224SOL    HW2  672   0.412   2.119   2.954  0.0931  0.3260  1.2321
  225SOL     OW  673   1.697   2.336   2.955 -0.4857 -0.0508 -0.1710
  225SOL    HW1  674   1.660   2.248   2.950 -0.2550 -0.1687  0.1741
  225SOL    HW2  675   1.754   2.342   2.879 -3.4580  1.1987 -2.5050
  226SOL     OW  676   1.067   2.754   0.430  0.3199 -0.2613  0.2244
  226SOL    HW1  677   1.073   2.824   0.366  2.1224  0.0411  0.6706
  226SOL    HW2  678   1.051   2.799   0.513  1.4317 -0.3338  0.5031
  227SOL     OW  679   0.164   1.771   2.676  0.3818  0.3276  0.5874
  227SOL    HW1  680   0.126   1.760   2.588 -0.0268 -1.4622  0.9451
  227SOL    HW2  681   0.230   1.838   2.665  1.1679 -0.6726 -1.3807
  228SOL     OW  682   0.195   0.321   0.944 -0.3848  0.1252 -0.4548
  228SOL    HW1  683   0.231   0.398   0.901 -0.7805  1.5609  1.6412
  228SOL    HW2  684   0.103   0.319   0.917 -0.0466 -0.4861 -1.6363
  229SOL     OW  685   0.696   2.039   0.702  0.2326 -0.9686 -0.0906
  229SOL    HW1  686   0.718   2.046   0.795  4.6822 -0.6133 -0.9440
  229SOL    HW2  687   0.697   2.129   0.670  1.4697 -1.2683 -0.9477
  230SOL     OW  688   1.234   2.869   2.152 -0.1130  0.0008 -0.1751
  230SOL    HW1  689   1.230   2.894   2.244 -0.1453  0.0068 -0.1780
  230SOL    HW2  690   1.231   2.952   2.104 -2.8069 -0.0416 -0.2841
  231SOL     OW  691   1.919   2.041   2.970  0.4594 -0.5425  0.0674
  231SOL    HW1  692   1.912   2.047   3.065 -1.0677  0.0734 -0.0565
  231SOL    HW2  693   1.950   2.127   2.943 -0.4247 -0.2646 -0.0841
  232SOL     OW  694   0.528   0.455   1.562  0.1746 -0.4772 -0.6883
  232SOL    HW1  695   0.461   0.413   1.508  1.6330 -1.7151 -1.6730
  232SOL    HW2  696   0.538   0.397   1.638  0.8806 -0.9412 -1.1146
  233SOL     OW  697   0.764   1.439   0.928  0.2322 -0.2285  0.0214
  233SOL    HW1  698   0.830   1.399   0.872 -0.0671  0.0903 -0.5808
  233SOL    HW2  699   0.681   1.424   0.881  0.1562  1.4230 -0.4398
  234SOL     OW  700   1.319   0.638   2.963  0.1589  0.2790  0.2746
  234SOL    HW1  701   1.270   0.710   2.921 -0.0499  0.2907  0.5312
  234SOL    HW2  702   1.354   0.678   3.043  0.6013  0.2722  0.0836
  235SOL     OW  703   2.819   0.517   2.807  0.1097  0.3134  0.2612
  235SOL    HW1  704   2.801   0.432   2.847  2.9059 -0.1421  0.8270
  235SOL    HW2  705   2.894   0.500   2.749 -0.5497  2.0239 -1.1746
  236SOL     OW  706   2.731   0.368   2.510 -0.4009  0.3142  0.4057
  236SOL    HW1  707   2.711   0.302   2.444 -0.8238  1.6536 -0.8252
  236SOL    HW2  708   2.652   0.373   2.564 -0.5216  0.1259  0.2453
  237SOL     OW  709   1.005   1.733   0.481 -0.0850  0.1728  0.2748
  237SOL    HW1  710   0.993   1.732   0.576 -1.6429  2.4339  0.1893
  237SOL    HW2  711   0.926   1.775   0.448 -0.0972 -1.6125 -2.1572
  238SOL     OW  712   0.149   0.418   0.353  0.3177  0.1759  0.7059
  238SOL    HW1  713   0.090   0.450   0.284 -1.2466 -0.3907  1.7256
  238SOL    HW2  714   0.146   0.487   0.420  2.1786  0.9349  0.0840
  239SOL     OW  715   1.237   0.368   0.814 -0.1216 -0.0356 -0.3057
  239SOL    HW1  716   1.328   0.339   0.803 -0.0941  0.8073 -3.0658
  239SOL    HW2  717   1.187   0.287   0.822  0.7403 -0.5678 -0.1540
  240SOL     OW  718   2.528   0.911   1.468 -0.1328  0.0325  0.1316
  240SOL    HW1  719   2.594   0.856   1.426 -1.1491 -1.0708 -0.0747
  240SOL    HW2  720   2.479   0.951   1.396  0.6605  1.3222  0.2791
  241SOL     OW  721   2.789   1.083   2.135 -0.2903 -0.0506  0.2073
  241SOL    HW1  722   2.735   1.050   2.207 -0.4811 -0.2359 -0.0165
  241SOL    HW2  723   2.763   1.030   2.060  0.4372 -0.3567  0.1639
  242SOL     OW  724   0.285   2.530   2.202  0.1705 -0.1398  0.1118
  242SOL    HW1  725   0.296   2.529   2.107 -2.0212 -0.8405 -0.1944
  242SOL    HW2  726   0.373   2.510   2.236  0.6614 -1.5903 -1.8074
  243SOL     OW  727   1.015   1.584   2.448  0.2278  0.4597  0.5452
  243SOL    HW1  728   0.960   1.536   2.386  1.0402 -0.1886  0.3125
  243SOL    HW2  729   1.104   1.575   2.413  0.7120  0.0387  1.8256
  244SOL     OW  730   1.124   0.592   0.556  0.1460  0.1016  0.4147
  244SOL    HW1  731   1.168   0.576   0.473 -1.5680 -1.8313 -0.1843
  244SOL    HW2  732   1.137   0.685   0.573  4.7593 -0.3486  0.5260
  245SOL     OW  733   0.558   1.847   2.940  0.5295  0.9207 -0.5404
  245SOL    HW1  734   0.639   1.861   2.990 -0.9502 -0.2661  2.4219
  245SOL    HW2  735   0.496   1.910   2.977 -0.7201 -0.2250 -0.6178
  246SOL     OW  736   2.233   1.598   0.844 -0.1851 -0.0182 -0.0117
  246SOL    HW1  737   2.171   1.669   0.861 -0.3504  0.1214 -1.1122
  246SOL    HW2  738   2.204   1.560   0.761 -0.7189 -2.0689  1.0500
  247SOL     OW  739   1.718   2.165   2.299  0.0620 -0.0825 -0.2538
  247SOL    HW1  740   1.676   2.157   2.213 -0.1572 -1.4819 -0.0492
  247SOL    HW2  741   1.810   2.149   2.282  0.0207 -0.3452 -0.2294
  248SOL     OW  742   1.494   0.742   1.744  0.3432  0.2501  0.2264
  248SOL    HW1  743   1.435   0.815   1.725 -0.5400 -0.3412  0.6144
  248SOL    HW2  744   1.489   0.731   1.839  0.8936  0.0350  0.2319
  249SOL     OW  745   1.090   1.395   1.476  0.0202 -0.3375 -0.2290
  249SOL    HW1  746   1.031   1.322   1.460 -1.4942  1.0779 -1.5238
  249SOL    HW2  747   1.171   1.370   1.432  0.0510 -1.8536  0.6382
  250SOL     OW  748   2.827   2.977   0.761 -0.6869  0.4834  0.2144
  250SOL    HW1  749   2.756   2.933   0.714 -0.9544  0.1619  0.8942
  250SOL    HW2  750   2.907   2.945   0.720 -0.9286  1.0915 -0.7769
  251SOL     OW  751   0.453   2.187   0.983 -0.1602 -0.2539 -0.6567
  251SOL    HW1  752   0.402   2.265   1.008 -0.9552 -0.3585 -1.8444
  251SOL    HW2  753   0.441   2.181   0.888  1.6336 -0.6257 -0.8815
  252SOL     OW  754   2.231   2.941   1.275 -0.2932 -0.6118 -0.5332
  252SOL    HW1  755   2.215   3.009   1.340 -0.0385  1.4017 -2.4887
  252SOL    HW2  756   2.147   2.895   1.267 -0.6012 -0.2337  0.4670
  253SOL     OW  757   0.253   1.223   2.399  0.2841  0.3688  0.3498
  253SOL    HW1  758   0.193   1.297   2.410  0.0648  0.3452 -0.5328
  253SOL    HW2  759   0.200   1.146   2.419 -0.8950  0.1081 -2.9869
  254SOL     OW  760   2.198  -0.008   2.682 -0.3031  0.3121  0.1627
  254SOL    HW1  761   2.210   0.052   2.609  2.1864 -0.3802 -0.0811
  254SOL    HW2  762   2.274   0.007   2.738  0.1020 -2.1571  0.3908
  255SOL     OW  763   0.834   2.709   1.676  0.0875  0.3616 -1.1813
  255SOL    HW1  764   0.749   2.723   1.716 -0.2934 -1.6505 -1.1560
  255SOL    HW2  765   0.896   2.714   1.749 -0.1916  0.2887 -0.9361
  256SOL     OW  766   1.111   2.597   2.870  0.3473 -0.1643  0.4361
  256SOL    HW1  767   1.123   2.503   2.864  0.0208 -0.2666  1.2575
  256SOL    HW2  768   1.158   2.623   2.950  3.2058  0.8808 -1.4084
  257SOL     OW  769   1.307   1.109   0.422 -0.2297  0.4645 -0.0346
  257SOL    HW1  770   1.324   1.143   0.334 -0.9122  0.1429 -0.3047
  257SOL    HW2  771   1.229   1.156   0.451  0.6727  1.4355  0.8943
  258SOL     OW  772   0.189   0.972   2.044  0.5300 -0.8638 -0.8554
  258SOL    HW1  773   0.269   1.020   2.020  0.0694  0.2019 -0.3530
  258SOL    HW2  774   0.119   1.017   1.995 -0.0931 -0.1412  0.6260
  259SOL     OW  775   1.892   0.351   2.227  0.1449 -0.0864 -0.2455
  259SOL    HW1  776   1.810   0.399   2.241  0.7978  0.2756  2.9758
  259SOL    HW2  777   1.942   0.407   2.167 -1.6184  0.0014 -1.7359
  260SOL     OW  778   1.039   1.882   1.786  0.1725  0.1343  0.1330
  260SOL    HW1  779   1.050   1.905   1.694 -0.9510 -0.7825 -0.2460
  260SOL    HW2  780   0.959   1.927   1.813 -1.2841 -2.0779 -0.2421
  261SOL     OW  781   2.642   0.795   2.562  0.0540 -0.4652 -0.2758
  261SOL    HW1  782   2.587   0.736   2.613  0.9907 -1.9081 -0.9016
  261SOL    HW2  783   2.650   0.873   2.618 -1.2392 -0.8783  0.5371
  262SOL     OW  784   1.444   0.090   1.203 -0.6025  0.3889  0.1648
  262SOL    HW1  785   1.455   0.076   1.297  1.0869 -2.4817 -0.3745
  262SOL    HW2  786   1.506   0.159   1.182  0.5697 -0.4208  0.8427
  263SOL     OW  787   2.234   0.389   0.239 -0.2771 -0.4775 -0.1477
  263SOL    HW1  788   2.189   0.323   0.187 -0.6691  0.6556 -1.2921
  263SOL    HW2  789   2.313   0.410   0.189  0.7469 -1.2623  1.0446
  264SOL     OW  790   0.260   0.187   2.001  0.1776  0.3011  0.2580
  264SOL    HW1  791   0.250   0.113   1.941 -0.7373 -0.7223  1.5826
  264SOL    HW2  792   0.172   0.224   2.008 -0.2408 -0.9376  2.5274
  265SOL     OW  793   2.793   1.450   2.398 -0.4565  0.0827 -0.2409
  265SOL    HW1  794   2.873   1.445   2.346 -1.5250 -2.6780 -1.8713
  265SOL    HW2  795   2.723   1.460   2.334 -1.5728  0.8219  1.0263
  266SOL     OW  796   1.809   0.701   0.610  0.0956  0.3345 -0.3413
  266SOL    HW1  797   1.853   0.713   0.526 -0.0821  0.7380 -0.3810
  266SOL    HW2  798   1.720   0.674   0.587  0.2230 -0.1499 -0.2686
  267SOL     OW  799   2.056   0.987   2.141  0.0358  0.1479 -0.1393
  267SOL    HW1  800   1.978   0.944   2.108  1.2853 -2.0986 -0.3464
  267SOL    HW2  801   2.059   0.966   2.234  1.2371 -1.2298 -0.4591
  268SOL     OW  802   0.570   0.886   0.943  0.0618  0.4249  0.0034
  268SOL    HW1  803   0.572   0.829   1.020  0.3534  0.0155 -0.2980
  268SOL    HW2  804   0.575   0.975   0.978 -3.3621  0.4921  0.6723
  269SOL     OW  805   2.773   1.275   1.395  0.3142  0.4834 -0.0295
  269SOL    HW1  806   2.771   1.196   1.341  0.9670  0.3582  0.1148
  269SOL    HW2  807   2.815   1.341   1.339 -0.6764  0.8777 -0.3299
  270SOL     OW  808   1.195   2.194   1.730  0.3202 -0.4257 -0.5233
  270SOL    HW1  809   1.175   2.106   1.696 -1.7971 -0.7215  1.3059
  270SOL    HW2  810   1.119   2.247   1.706  0.1086  0.0769  1.1501
  271SOL     OW  811   1.917   2.985   0.065  0.1444  0.2685  0.4429
  271SOL    HW1  812   1.846   2.927   0.093 -0.0086  0.1252 -0.2257
  271SOL    HW2  813   1.996   2.931   0.074 -0.1003 -0.4384 -1.1674
  272SOL     OW  814   1.309   2.570   1.107 -0.5702 -0.1289  0.4295
  272SOL    HW1  815   1.328   2.644   1.165  0.4631  0.5515 -0.7446
  272SOL    HW2  816   1.226   2.593   1.065 -0.0696  0.5487 -0.2035
  273SOL     OW  817   1.942   2.015   0.282  0.3244 -0.6633 -0.3815
  273SOL    HW1  818   1.924   2.096   0.329 -0.0592 -1.2279  0.4730
  273SOL    HW2  819   1.889   1.949   0.326  1.1574 -1.5148 -0.6091
  274SOL     OW  820   1.040   2.681   2.085 -0.4152  0.4955  0.0757
  274SOL    HW1  821   1.103   2.739   2.127  0.2153  0.9913 -1.4699
  274SOL    HW2  822   1.026   2.720   1.999 -1.1926 -0.7947 -0.4122
  275SOL     OW  823   1.101   0.494   1.490 -0.3712 -0.7411 -0.3619
  275SOL    HW1  824   1.177   0.551   1.480 -0.3065 -0.4815  1.3343
  275SOL    HW2  825   1.040   0.523   1.422  1.1279 -1.1369 -1.9392
  276SOL     OW  826   0.781   2.515   0.119 -0.6587  0.0570  0.5245
  276SOL    HW1  827   0.717   2.447   0.143  0.4260 -1.3127 -0.3241
  276SOL    HW2  828   0.850   2.506   0.184  0.8378 -1.6278 -1.1708
  277SOL     OW  829   1.485   1.894   2.006  0.2091  0.0793  0.5323
  277SOL    HW1  830   1.519   1.833   2.071 -0.5633 -0.4478  0.4565
  277SOL    HW2  831   1.422   1.843   1.956  1.5477  0.1478 -1.3402
  278SOL     OW  832   1.768   2.872   1.011  0.6537 -0.4662  0.7020
  278SOL    HW1  833   1.817   2.943   0.969  1.6604 -2.3279 -1.4469
  278SOL    HW2  834   1.725   2.826   0.939 -1.7643 -0.7929  2.2406
  279SOL     OW  835   1.118   0.731   1.188 -0.3195 -0.1785 -0.5043
  279SOL    HW1  836   1.167   0.744   1.107 -0.0643  1.2282 -0.1484
  279SOL    HW2  837   1.185   0.733   1.257 -0.7606  0.8423 -0.0919
  280SOL     OW  838   0.181   2.186   2.843 -0.0031  0.1784 -0.2862
  280SOL    HW1  839   0.091   2.184   2.809  0.3141 -0.5267 -1.1306
  280SOL    HW2  840   0.212   2.274   2.822 -0.0377 -0.0302 -1.2774
  281SOL     OW  841   2.317   2.195   1.139  0.0690 -0.4518  0.3827
  281SOL    HW1  842   2.343   2.110   1.104 -2.2442 -1.1621  0.2641
  281SOL    HW2  843   2.279   2.176   1.225 -0.1505  0.5156  0.5171
  282SOL     OW  844   2.938   2.355   1.887 -0.6408  0.7616 -0.1728
  282SOL    HW1  845   2.969   2.430   1.938  2.4793 -0.4018 -0.1414
  282SOL    HW2  846   2.942   2.281   1.948 -2.6386  0.3225 -0.5072
  283SOL     OW  847   1.914   0.360   0.791 -0.1153 -0.0239  0.0554
  283SOL    HW1  848   1.825   0.393   0.789  0.3255  1.3107  0.7097
  283SOL    HW2  849   1.920   0.312   0.874  0.0119  0.6229  0.4230
  284SOL     OW  850   0.781   0.483   2.215  0.1989  0.1816  0.3351
  284SOL    HW1  851   0.742   0.571   2.219 -0.0950  0.2156 -1.8277
  284SOL    HW2  852   0.709   0.424   2.236 -0.0363  0.4012  0.1542
  285SOL     OW  853   2.737   0.022   0.052 -0.0473  0.4953  0.1947
  285SOL    HW1  854   2.671   0.015  -0.017  0.0463 -2.3114  0.2540
  285SOL    HW2  855   2.814  -0.023   0.016  0.8070  1.0782  1.2404
  286SOL     OW  856   1.775   1.920   1.494 -0.4732  0.2714 -0.2132
  286SOL    HW1  857   1.840   1.966   1.547  0.2734 -1.0631  0.0586
  286SOL    HW2  858   1.701   1.906   1.553 -0.1013 -0.1963  0.1470
  287SOL     OW  859   0.322   1.262   0.693  0.4083  0.2847 -0.3277
  287SOL    HW1  860   0.280   1.187   0.650  0.2999  1.5155 -2.5351
  287SOL    HW2  861   0.318   1.332   0.628  2.2932  1.6405  0.9116
  288SOL     OW  862   1.091   2.181   1.422  0.2988  0.2224 -0.5905
  288SOL    HW1  863   1.014   2.195   1.478  0.9305  0.4381  0.2475
  288SOL    HW2  864   1.136   2.265   1.422  0.2405  0.2647 -1.5511
  289SOL     OW  865   1.938   2.098   1.653 -0.1127  0.2420  0.4274
  289SOL    HW1  866   2.027   2.082   1.621 -0.0437 -0.6932  1.0352
  289SOL    HW2  867   1.950   2.152   1.731 -0.0650  0.1145  0.5104
  290SOL     OW  868   1.031   2.696   1.296  0.0479 -0.2258 -0.0237
  290SOL    HW1  869   0.976   2.712   1.220  0.8283  0.4711 -0.4644
  290SOL    HW2  870   1.099   2.764   1.291  0.6336 -0.7277  0.7927
  291SOL     OW  871   1.071   2.283   0.884  0.0541  0.1640  0.5347
  291SOL    HW1  872   1.066   2.304   0.977  1.8597 -1.4864  1.0677
  291SOL    HW2  873   1.046   2.191   0.879 -0.5042  0.3624 -0.6946
  292SOL     OW  874   1.649   2.793   0.771  0.0730 -0.3680  0.4108
  292SOL    HW1  875   1.723   2.759   0.721  0.0883  0.9417 -0.4936
  292SOL    HW2  876   1.573   2.745   0.736  0.1699  0.0762 -0.4290
  293SOL     OW  877   0.155   1.517   1.033  0.2126  0.2217 -0.2885
  293SOL    HW1  878   0.139   1.533   1.126 -0.1892 -0.3079 -0.2610
  293SOL    HW2  879   0.239   1.471   1.031 -0.6881 -1.5016 -0.0196
  294SOL     OW  880   0.689   2.808   2.287  0.3703  0.2594 -0.4245
  294SOL    HW1  881   0.768   2.862   2.289  0.8771 -0.4828  0.9891
  294SOL    HW2  882   0.713   2.730   2.336 -0.8332 -0.5807 -1.1322
  295SOL     OW  883   0.792   1.031   2.589  1.0377 -0.2394  0.3103
  295SOL    HW1  884   0.704   0.992   2.581  1.3894 -1.1812  0.8384
  295SOL    HW2  885   0.812   1.061   2.501 -0.1891  0.8356  0.3645
  296SOL     OW  886   1.275   0.449   2.737  0.2711 -0.4821 -0.7984
  296SOL    HW1  887   1.310   0.506   2.805  1.0016 -0.4946 -1.1578
  296SOL    HW2  888   1.338   0.378   2.730 -0.8171 -1.5697 -0.0789
  297SOL     OW  889   0.444   2.846   1.184  0.4236 -0.2754  0.3744
  297SOL    HW1  890   0.418   2.884   1.100  3.8752  0.7919 -0.3614
  297SOL    HW2  891   0.450   2.920   1.244  1.5263 -0.4798  0.5374
  298SOL     OW  892   2.630   1.446   1.532 -0.3865 -0.3657 -0.7424
  298SOL    HW1  893   2.666   1.384   1.470  0.5090 -0.4981 -0.1096
  298SOL    HW2  894   2.584   1.392   1.597 -0.3712 -0.3102 -0.6847
  299SOL     OW  895   2.224   0.576   1.454 -0.8777  0.2819 -0.1637
  299SOL    HW1  896   2.258   0.554   1.368 -0.6928  0.4616 -0.1360
  299SOL    HW2  897   2.297   0.560   1.514 -0.9404  0.3574 -0.0658
  300SOL     OW  898   0.842   1.244   1.387 -0.4553  0.1204 -0.2295
  300SOL    HW1  899   0.816   1.297   1.311  1.4463  0.7579 -0.4963
  300SOL    HW2  900   0.787   1.166   1.382 -3.3283  1.9585  0.1326
  301SOL     OW  901   2.944   0.280   0.591 -0.1834  0.3147  0.0071
  301SOL    HW1  902   3.033   0.289   0.556 -0.8380 -0.5593 -2.0187
  301SOL    HW2  903   2.956   0.273   0.686  2.2616 -3.6969 -0.4068
  302SOL     OW  904   0.744   1.585   1.706  0.1343  0.1122 -0.8562
  302SOL    HW1  905   0.733   1.513   1.644 -0.8248 -0.7043  0.2163
  302SOL    HW2  906   0.748   1.664   1.652  0.3917 -0.6730 -2.0004
  303SOL     OW  907   2.240   1.449   1.613 -0.1650  0.5551 -0.3773
  303SOL    HW1  908   2.174   1.500   1.566  0.1833  0.1964 -1.2676
  303SOL    HW2  909   2.266   1.380   1.552  0.1451 -0.0515  0.4223
  304SOL     OW  910   0.956   0.570   0.238 -0.0482 -0.0059  0.0616
  304SOL    HW1  911   0.971   0.662   0.213  0.0125  0.7686  2.7104
  304SOL    HW2  912   1.018   0.521   0.183  0.9733  1.6681 -0.3884
  305SOL     OW  913   0.964   1.406   0.428  0.6594  0.9488 -0.1448
  305SOL    HW1  914   0.887   1.413   0.485  1.5687  0.9869  1.1051
  305SOL    HW2  915   0.990   1.497   0.413 -0.7056  1.0523 -2.2480
  306SOL     OW  916   0.867   0.954   0.455 -0.6370 -0.2174 -0.0279
  306SOL    HW1  917   0.813   0.959   0.533 -0.0527  0.1060  0.3633
  306SOL    HW2  918   0.848   1.034   0.407 -0.2267  0.0851  0.3029
  307SOL     OW  919   0.247   1.172   3.023  0.8439  0.1118 -0.0139
  307SOL    HW1  920   0.318   1.214   2.975  0.3953  0.1114 -0.6940
  307SOL    HW2  921   0.178   1.160   2.958  0.8734 -1.4706  0.2176
  308SOL     OW  922   2.930   2.019   1.680 -0.1280  0.5941  0.3392
  308SOL    HW1  923   2.847   1.973   1.673 -0.2199  0.7859  0.1660
  308SOL    HW2  924   2.950   2.019   1.774 -0.8757  1.5286  0.5073
  309SOL     OW  925   2.851   1.455   1.845 -0.5970  0.5532 -0.3467
  309SOL    HW1  926   2.868   1.387   1.779 -1.9376  0.3762 -0.5407
  309SOL    HW2  927   2.807   1.408   1.916 -0.3353  0.9833  0.1019
  310SOL     OW  928   0.720   1.391   0.567  0.0982 -0.0171  0.8014
  310SOL    HW1  929   0.661   1.464   0.586 -1.9308 -1.1860 -0.6412
  310SOL    HW2  930   0.682   1.317   0.614  0.8020 -0.6613  0.3688
  311SOL     OW  931   1.199   2.710   2.637  0.1366 -0.8249  0.4344
  311SOL    HW1  932   1.163   2.674   2.718 -0.2855 -1.3609  0.0190
  311SOL    HW2  933   1.208   2.634   2.579  1.2830 -0.5913  0.2850
  312SOL     OW  934   1.452   1.592   2.550  0.0328 -0.3218  0.2559
  312SOL    HW1  935   1.493   1.510   2.577  0.6383  0.0425  0.4542
  312SOL    HW2  936   1.516   1.659   2.571 -0.0770  0.1184 -0.7529
  313SOL     OW  937   2.445   2.081   0.370  0.0228 -0.0084  0.5363
  313SOL    HW1  938   2.540   2.070   0.361 -0.1563 -0.6551 -0.8407
  313SOL    HW2  939   2.434   2.119   0.457  1.5254 -0.1401  0.8227
  314SOL     OW  940   1.192   1.886   2.325  0.4498  0.3789 -0.0106
  314SOL    HW1  941   1.160   1.913   2.240 -0.1976 -0.0282  0.0954
  314SOL    HW2  942   1.264   1.947   2.345  1.5579 -0.3939 -1.4594
  315SOL     OW  943   1.521   2.135   0.591  0.8396 -0.4778  0.4267
  315SOL    HW1  944   1.502   2.042   0.576 -0.3655 -0.0217 -1.1603
  315SOL    HW2  945   1.452   2.163   0.651  0.7383 -0.4379  0.2924
  316SOL     OW  946   1.583   2.661   1.800 -0.1552 -0.4963 -0.0329
  316SOL    HW1  947   1.581   2.717   1.878 -0.2169  0.1506 -0.4922
  316SOL    HW2  948   1.606   2.575   1.833 -1.8654 -0.6270  0.9517
  317SOL     OW  949   2.481   2.355   2.083  0.3083 -0.0842  0.1694
  317SOL    HW1  950   2.400   2.380   2.127  0.3782 -0.5441  0.5604
  317SOL    HW2  951   2.508   2.435   2.036  0.2787  0.4414  1.0306
  318SOL     OW  952   1.565   2.693   1.339  0.8777 -0.0033  0.3320
  318SOL    HW1  953   1.547   2.602   1.361  0.0669  0.1269  0.2230
  318SOL    HW2  954   1.479   2.731   1.323  1.2037  0.8146  0.4996
  319SOL     OW  955   1.923   2.514   1.977  0.1390 -0.4264 -0.1520
  319SOL    HW1  956   1.867   2.565   2.035  0.6888  1.6668 -1.3812
  319SOL    HW2  957   1.864   2.449   1.939 -0.5087 -0.9886  1.6792
  320SOL     OW  958   2.752   1.882   2.805 -0.4232 -0.1980 -0.3493
  320SOL    HW1  959   2.753   1.850   2.715  0.4669  0.5146 -0.6037
  320SOL    HW2  960   2.836   1.855   2.842 -0.6169 -0.1412  0.1445
  321SOL     OW  961   0.859   0.826   1.723 -0.6641 -0.4107  0.6194
  321SOL    HW1  962   0.891   0.791   1.640 -0.6296  0.5398  0.2157
  321SOL    HW2  963   0.769   0.796   1.729 -1.6842  1.9230 -1.2444
  322SOL     OW  964   1.173   0.066   1.363  0.4583  0.2243  0.4153
  322SOL    HW1  965   1.215   0.129   1.421  0.0187  1.9184 -1.0281
  322SOL    HW2  966   1.142   0.118   1.289 -0.9216 -1.5250 -0.3170
  323SOL     OW  967   2.442   0.694   1.118 -0.3087  0.3646  0.0733
  323SOL    HW1  968   2.499   0.629   1.077 -0.7415 -0.0779  0.1756
  323SOL    HW2  969   2.359   0.686   1.072 -0.5759  0.3674  0.5439
  324SOL     OW  970   0.793   1.794   1.521 -0.0347  0.5349  0.0190
  324SOL    HW1  971   0.772   1.887   1.514  1.1713  0.9587  1.2809
  324SOL    HW2  972   0.877   1.785   1.475 -1.3463 -0.4815 -2.3040
  325SOL     OW  973   1.078   0.154   0.736 -0.1165 -0.0060 -0.5859
  325SOL    HW1  974   1.007   0.177   0.797 -0.0404  0.8101 -0.7883
  325SOL    HW2  975   1.085   0.059   0.742 -0.5069  0.0054  0.2387
  326SOL     OW  976   1.582   2.999   0.598  0.0612  0.6026 -0.0264
  326SOL    HW1  977   1.640   2.968   0.667  1.1847  0.5712 -0.9617
  326SOL    HW2  978   1.538   2.920   0.567  2.4642 -0.0614 -1.9836
  327SOL     OW  979   2.053   0.173   0.384 -0.2272  0.2644  0.1768
  327SOL    HW1  980   2.023   0.217   0.305  2.3110 -1.2707 -1.7821
  327SOL    HW2  981   2.009   0.088   0.382  1.7324 -0.7886 -1.0665
  328SOL     OW  982   1.896   2.635   0.181  0.1226  0.5940  0.0948
  328SOL    HW1  983   1.829   2.701   0.160 -0.6011 -0.0918  0.1941
  328SOL    HW2  984   1.954   2.678   0.244  1.4160  2.1653 -2.0278
  329SOL     OW  985   1.419   0.648   0.849  0.1266 -0.4535  0.0326
  329SOL    HW1  986   1.345   0.590   0.831  0.6727 -1.2438  0.2415
  329SOL    HW2  987   1.458   0.664   0.763 -1.4619  1.6554 -0.3681
  330SOL     OW  988   0.624   1.518   2.331  0.1642  0.4462 -0.2710
  330SOL    HW1  989   0.585   1.434   2.356  0.5914  0.1607 -0.5371
  330SOL    HW2  990   0.582   1.582   2.389 -0.5723  0.1307 -0.4398
  331SOL     OW  991   2.050   1.994   0.719  0.0935  0.1681  0.3474
  331SOL    HW1  992   1.959   1.973   0.701  0.3573  0.8272 -1.9989
  331SOL    HW2  993   2.071   1.945   0.799 -2.3450  0.2074  1.0741
  332SOL     OW  994   1.538   2.150   1.426  0.1458 -0.0907 -0.1287
  332SOL    HW1  995   1.554   2.218   1.361 -0.5307  1.3426  1.1366
  332SOL    HW2  996   1.619   2.099   1.428  0.7694  0.8387 -0.9237
  333SOL     OW  997   2.305   2.595   1.824  0.1026 -0.3808  0.3323
  333SOL    HW1  998   2.260   2.672   1.790  0.0211  0.4800  2.2708
  333SOL    HW2  999   2.381   2.629   1.871  0.8095 -1.5847  0.1309
  334SOL     OW 1000   2.897   2.870   2.903 -0.3147 -0.2877  0.0039
  334SOL    HW1 1001   2.900   2.775   2.915 -1.8249 -0.4236 -0.5121
  334SOL    HW2 1002   2.873   2.882   2.811  0.1711  0.6111 -0.0208
  335SOL     OW 1003   0.055   1.927   2.925  0.8968  0.4628 -0.7742
  335SOL    HW1 1004   0.095   1.894   2.845  2.2662  0.3162 -0.0674
  335SOL    HW2 1005   0.069   2.021   2.923  0.3163  0.5511 -1.0158
  336SOL     OW 1006   1.137   2.590   0.754 -0.6069  0.1051  0.0187
  336SOL    HW1 1007   1.129   2.528   0.827 -0.9557  0.1859  0.0469
  336SOL    HW2 1008   1.161   2.535   0.679 -1.2199 -0.1048 -0.0232
  337SOL     OW 1009   2.688   1.646   1.722 -0.0076  0.4127  0.0361
  337SOL    HW1 1010   2.743   1.596   1.783 -1.6219  0.4180  1.5717
  337SOL    HW2 1011   2.669   1.585   1.651  0.0951 -0.3297  0.6356
  338SOL     OW 1012   1.665   0.508   1.928  0.1804 -0.0547  0.0718
  338SOL    HW1 1013   1.605   0.509   2.003 -0.8379  0.3227 -0.7325
  338SOL    HW2 1014   1.702   0.597   1.927 -0.6674  0.3077 -0.5305
  339SOL     OW 1015   2.238   1.223   0.347  0.0122  0.5694  0.0953
  339SOL    HW1 1016   2.309   1.160   0.359 -1.1843 -0.9249 -0.2491
  339SOL    HW2 1017   2.247   1.253   0.257 -1.0670 -1.3601 -0.7173
  340SOL     OW 1018   2.679   2.893   2.339  0.6559  0.4856  0.0340
  340SOL    HW1 1019   2.613   2.892   2.409 -1.1866  0.5639 -1.5948
  340SOL    HW2 1020   2.738   2.821   2.361 -0.1971  0.1397  1.3466
  341SOL     OW 1021   0.942   0.791   2.321  0.3944  0.2130 -0.5852
  341SOL    HW1 1022   0.966   0.883   2.306  0.5191  0.4664  1.0156
  341SOL    HW2 1023   0.853   0.784   2.285  0.7036  0.7356 -1.4776
  342SOL     OW 1024   2.040   1.508   0.251  0.2709 -0.0245  0.3888
  342SOL    HW1 1025   2.132   1.484   0.238  0.6792  0.8400  1.4619
  342SOL    HW2 1026   1.990   1.445   0.200  1.5094  0.1875 -1.1389
  343SOL     OW 1027   1.603   1.688   1.330 -0.3186  1.0243 -0.1451
  343SOL    HW1 1028   1.651   1.634   1.267 -1.1481  1.8842 -1.5817
  343SOL    HW2 1029   1.647   1.672   1.413  2.0927  1.3375 -1.2653
  344SOL     OW 1030   1.643   0.439   0.763  0.1592 -0.3033 -0.4971
  344SOL    HW1 1031   1.610   0.510   0.708 -0.2450  0.0306  0.1549
  344SOL    HW2 1032   1.569   0.379   0.772  0.1723 -0.2788 -0.2056
  345SOL     OW 1033   2.760   1.882   2.149 -0.3382 -0.2594 -0.4363
  345SOL    HW1 1034   2.699   1.899   2.077  0.6087  0.8065 -0.9998
  345SOL    HW2 1035   2.783   1.789   2.139 -0.7685 -0.3040 -1.0609
  346SOL     OW 1036   1.588   1.730   2.203  0.2251  0.4415  0.0762
  346SOL    HW1 1037   1.658   1.670   2.228 -0.2977 -0.1038  0.2709
  346SOL    HW2 1038   1.583   1.793   2.275  1.0074  0.9413 -0.2904
  347SOL     OW 1039   0.751   2.882   1.284  0.0924 -0.2619 -0.1995
  347SOL    HW1 1040   0.799   2.860   1.364  0.7876  0.8341 -0.2889
  347SOL    HW2 1041   0.702   2.962   1.306 -0.7960 -0.7215 -0.4652
  348SOL     OW 1042   0.138   1.087   0.607 -0.1773 -0.2825  0.5432
  348SOL    HW1 1043   0.144   1.027   0.533 -0.1520 -1.2436  1.3013
  348SOL    HW2 1044   0.088   1.161   0.574 -1.1074 -1.1859 -0.1373
  349SOL     OW 1045   1.518   0.664   0.595 -0.1241 -0.0059 -0.0471
  349SOL    HW1 1046   1.487   0.727   0.530 -0.9519  0.1947  0.5174
  349SOL    HW2 1047   1.474   0.582   0.573 -1.2693  0.3269  0.8712
  350SOL     OW 1048   1.523   1.053   1.965 -0.4668 -0.4595  0.4481
  350SOL    HW1 1049   1.461   1.076   2.034 -0.4956  0.2538  0.1892
  350SOL    HW2 1050   1.488   1.094   1.886  0.7386  0.6408  0.4565
  351SOL     OW 1051   1.380   3.004   0.845 -0.3480  0.5637  0.0585
  351SOL    HW1 1052   1.429   2.930   0.810 -1.4714 -0.0521 -0.2655
  351SOL    HW2 1053   1.338   2.970   0.924 -0.8811  0.8369 -0.1020
  352SOL     OW 1054   2.208   2.460   2.040 -0.0972 -0.0973 -0.7775
  352SOL    HW1 1055   2.244   2.488   1.956  0.1218  1.4732 -0.1903
  352SOL    HW2 1056   2.116   2.439   2.022  0.5178 -2.0702 -1.8551
  353SOL     OW 1057   0.752   2.311   1.345  0.2427  0.6977  0.2968
  353SOL    HW1 1058   0.660   2.321   1.369  0.2390 -0.1474  0.6656
  353SOL    HW2 1059   0.796   2.384   1.388  0.1049 -0.2666  2.2042
  354SOL     OW 1060   0.271   0.831   0.888  1.0424 -0.3885 -0.3849
  354SOL    HW1 1061   0.350   0.880   0.908  0.4988  1.2306 -1.9230
  354SOL    HW2 1062   0.215   0.843   0.965  1.8540 -0.6407  0.2565
  355SOL     OW 1063   0.599   1.361   0.294  0.0940 -0.5839 -0.3599
  355SOL    HW1 1064   0.587   1.444   0.248 -1.1747 -0.2555  0.5310
  355SOL    HW2 1065   0.631   1.386   0.380  0.7413 -1.1000 -0.4375
  356SOL     OW 1066   2.891   0.127   1.744  0.5684 -0.2938 -0.3074
  356SOL    HW1 1067   2.917   0.095   1.830 -1.4852 -0.7033  0.2214
  356SOL    HW2 1068   2.826   0.064   1.713 -0.9680  1.4486 -0.8110
  357SOL     OW 1069   0.341   2.499   1.612 -0.1329  0.2621 -0.2148
  357SOL    HW1 1070   0.382   2.580   1.641  1.0835 -0.4169  0.0276
  357SOL    HW2 1071   0.262   2.527   1.566  0.9645  1.6742 -1.3332
  358SOL     OW 1072   1.425   0.840   0.420 -0.0859  0.1978 -0.1238
  358SOL    HW1 1073   1.372   0.897   0.475 -0.4080 -0.4103  0.2142
  358SOL    HW2 1074   1.506   0.888   0.406  0.1466  0.2244  1.1833
  359SOL     OW 1075   0.046   0.115   2.953  0.2890  0.0354  0.2282
  359SOL    HW1 1076   0.064   0.103   3.047 -1.8160  1.5342  0.9007
  359SOL    HW2 1077  -0.021   0.049   2.933  0.4079  0.0148 -0.1003
  360SOL     OW 1078   1.607   1.510   0.591 -0.6266 -0.0390  0.3324
  360SOL    HW1 1079   1.610   1.416   0.571 -0.6087  0.2198 -0.9893
  360SOL    HW2 1080   1.679   1.547   0.539 -1.0686  0.7960  0.3116
  361SOL     OW 1081   0.849   1.758   2.750  0.2041 -0.0117  0.1089
  361SOL    HW1 1082   0.931   1.718   2.722 -0.2629 -0.4866 -0.5911
  361SOL    HW2 1083   0.805   1.784   2.669  0.3844  1.7366  0.5239
  362SOL     OW 1084   1.321   0.262   1.495 -0.0344 -0.3272 -0.2015
  362SOL    HW1 1085   1.402   0.261   1.547 -1.2878  0.4380  1.9108
  362SOL    HW2 1086   1.281   0.346   1.517 -0.8286 -0.1513 -2.1890
  363SOL     OW 1087   0.048   1.476   0.747  0.4557 -0.3561 -0.1024
  363SOL    HW1 1088  -0.039   1.437   0.757  0.1232  0.1049 -1.0136
  363SOL    HW2 1089   0.092   1.458   0.830 -1.0318  0.7480  0.9770
  364SOL     OW 1090   2.256   0.920   2.662 -0.3358 -0.4617 -0.1720
  364SOL    HW1 1091   2.174   0.957   2.631  0.0210 -0.8952 -1.7471
  364SOL    HW2 1092   2.324   0.967   2.613  0.2122 -1.7853 -0.7585
  365SOL     OW 1093   1.764   1.436   1.449  0.3884  0.1922 -0.4803
  365SOL    HW1 1094   1.825   1.366   1.472  0.0409 -0.1583 -0.6414
  365SOL    HW2 1095   1.682   1.412   1.491 -0.1290 -0.2183 -1.6972
  366SOL     OW 1096   0.709   0.481   0.720 -0.4087 -0.2241 -0.1846
  366SOL    HW1 1097   0.766   0.483   0.643  0.5431  0.2668  0.5169
  366SOL    HW2 1098   0.620   0.484   0.684 -0.1988 -4.1509 -1.4488
  367SOL     OW 1099   2.801   0.321   1.537  0.2885 -0.4225  0.1672
  367SOL    HW1 1100   2.844   0.385   1.594  0.5985 -0.3324 -0.1598
  367SOL    HW2 1101   2.807   0.238   1.584 -0.4879 -0.1377  0.7844
  368SOL     OW 1102   1.903   0.436   0.450 -0.2294  0.1629  0.0719
  368SOL    HW1 1103   1.883   0.344   0.433  1.8531  0.0236 -2.4674
  368SOL    HW2 1104   1.957   0.435   0.529 -3.5334 -0.2188  2.5058
  369SOL     OW 1105   2.776   1.400   0.797 -0.2033 -0.1120 -0.1302
  369SOL    HW1 1106   2.686   1.433   0.803 -0.4645 -0.6989 -0.7955
  369SOL    HW2 1107   2.769   1.307   0.818  0.3322 -0.0529  0.3408
  370SOL     OW 1108   2.155   2.185   1.820 -0.5357  0.0545  0.0208
  370SOL    HW1 1109   2.136   2.265   1.771 -0.8580  0.6925  1.1477
  370SOL    HW2 1110   2.251   2.181   1.824 -0.5130  0.8761  0.6962
  371SOL     OW 1111   2.661   0.969   2.337  0.2760  0.0394 -0.1728
  371SOL    HW1 1112   2.580   0.955   2.288 -1.1215  0.9184  1.7619
  371SOL    HW2 1113   2.645   0.930   2.422  1.4831  1.1475  0.6114
  372SOL     OW 1114   2.816   1.610   0.547  0.3193  0.0983  0.0146
  372SOL    HW1 1115   2.817   1.680   0.613 -2.4970  0.3668 -0.1351
  372SOL    HW2 1116   2.811   1.529   0.599  1.5539  0.0703  0.1361
  373SOL     OW 1117   1.524   2.447   2.073 -0.1204  0.0798  0.6314
  373SOL    HW1 1118   1.512   2.540   2.091  0.8387  0.4091 -0.3315
  373SOL    HW2 1119   1.455   2.403   2.123 -2.5087  1.5239 -1.1812
  374SOL     OW 1120  -0.001   1.829   2.457  0.1876  0.5562 -0.9154
  374SOL    HW1 1121   0.019   1.806   2.366 -2.4110 -0.0416 -1.4080
  374SOL    HW2 1122  -0.007   1.925   2.456  1.6525  0.6734 -0.9883
  375SOL     OW 1123   0.438   2.215   0.708 -0.2806 -0.1324  0.7067
  375SOL    HW1 1124   0.366   2.270   0.676  0.5447  0.7790  0.3588
  375SOL    HW2 1125   0.507   2.225   0.641  1.0794  0.9704  2.1935
  376SOL     OW 1126   2.098   2.266   1.012  0.9333 -0.2861 -0.1679
  376SOL    HW1 1127   2.035   2.215   1.063  0.5376 -0.7019 -1.0533
  376SOL    HW2 1128   2.183   2.246   1.051  0.7155 -1.1541 -0.1313
  377SOL     OW 1129   0.848   0.565   2.734 -0.3711 -0.4617 -0.3928
  377SOL    HW1 1130   0.937   0.544   2.706  0.3513  1.9188 -0.1535
  377SOL    HW2 1131   0.809   0.610   2.659 -0.4316  0.8101  0.3668
  378SOL     OW 1132   0.287   2.512   0.510 -0.1568  0.6084  0.3740
  378SOL    HW1 1133   0.229   2.559   0.569 -0.0245 -1.3251  2.1831
  378SOL    HW2 1134   0.252   2.422   0.509  1.4850 -0.0687 -0.2608
  379SOL     OW 1135   2.025   2.606   2.375 -0.7596 -0.2598 -0.0282
  379SOL    HW1 1136   1.979   2.526   2.401 -2.0715  0.0104 -1.3786
  379SOL    HW2 1137   2.023   2.661   2.453  2.0844 -2.2767  1.6681
  380SOL     OW 1138   2.230   2.917   0.843 -0.8481  0.0612  0.8282
  380SOL    HW1 1139   2.168   2.862   0.794 -0.6139 -0.7243  1.3976
  380SOL    HW2 1140   2.236   2.875   0.929  0.5645  0.0618  0.7511
  381SOL     OW 1141   1.606   2.272   0.374 -0.1492 -0.5019  0.1279
  381SOL    HW1 1142   1.566   2.214   0.439 -0.1099  0.3920  0.9709
  381SOL    HW2 1143   1.700   2.257   0.383 -0.1267 -0.1656  0.4990
  382SOL     OW 1144   2.487   2.622   2.239 -0.1749  0.1004 -0.1376
  382SOL    HW1 1145   2.541   2.672   2.300  1.4217  0.0469 -1.4535
  382SOL    HW2 1146   2.405   2.608   2.287  0.6753  0.8221  1.6443
  383SOL     OW 1147   2.746   2.935   1.600 -0.0845 -0.5221 -0.1812
  383SOL    HW1 1148   2.783   2.847   1.608 -0.2309 -0.5096  0.7839
  383SOL    HW2 1149   2.651   2.920   1.598 -0.1012 -0.4053 -0.2304
  384SOL     OW 1150   1.385   2.067   2.375 -0.1860  0.0672 -0.1586
  384SOL    HW1 1151   1.461   2.009   2.375 -0.2248  0.0104  0.3208
  384SOL    HW2 1152   1.351   2.062   2.464 -1.9526 -1.4461 -0.8767
  385SOL     OW 1153   0.875   2.293   2.765 -0.6022 -0.7023  0.0522
  385SOL    HW1 1154   0.895   2.310   2.673  0.7622 -0.7491  0.3146
  385SOL    HW2 1155   0.827   2.370   2.795  2.8480  1.5278  0.4464
  386SOL     OW 1156   1.352   0.101   2.338 -0.1761 -0.0127  0.0205
  386SOL    HW1 1157   1.398   0.085   2.255  1.8912 -0.0843  1.1053
  386SOL    HW2 1158   1.311   0.186   2.327  1.1097  0.5494 -0.6735
  387SOL     OW 1159   0.510   2.134   1.919  0.3795 -0.4476  0.3210
  387SOL    HW1 1160   0.465   2.056   1.951 -0.9104 -0.3193 -1.0428
  387SOL    HW2 1161   0.444   2.179   1.866  1.4326  0.9978  0.1867
  388SOL     OW 1162   1.802   2.663   2.154  0.1015 -0.4808  0.0958
  388SOL    HW1 1163   1.715   2.669   2.194  0.4012  2.1528  0.5722
  388SOL    HW2 1164   1.862   2.658   2.228  0.4360 -0.0360 -0.1389
  389SOL     OW 1165   2.366   0.327   1.558 -0.5240 -0.3332 -0.2054
  389SOL    HW1 1166   2.417   0.271   1.499 -0.8391 -0.4315 -0.3854
  389SOL    HW2 1167   2.303   0.267   1.598 -0.4186 -0.2344  0.1069
  390SOL     OW 1168   2.699   0.071   1.261  0.0935 -0.0130 -0.7152
  390SOL    HW1 1169   2.778   0.024   1.289 -0.4785 -0.6326 -0.0864
  390SOL    HW2 1170   2.678   0.035   1.175  0.7685  0.5103 -1.1081
  391SOL     OW 1171   2.933   0.215   1.308 -0.7849  0.3519 -0.4086
  391SOL    HW1 1172   2.841   0.191   1.299 -0.9229 -0.0248  1.5552
  391SOL    HW2 1173   2.939   0.252   1.396  1.2487 -1.1782  0.1669
  392SOL     OW 1174   2.254   2.194   1.408 -0.2956 -0.6463 -0.4060
  392SOL    HW1 1175   2.216   2.254   1.472 -0.6134 -0.5707 -0.6645
  392SOL    HW2 1176   2.251   2.108   1.450  0.5485 -0.4195  0.1339
  393SOL     OW 1177   0.881   2.774   1.073  0.2402  0.1094  0.0441
  393SOL    HW1 1178   0.826   2.790   1.150 -0.6487  0.6928 -0.6846
  393SOL    HW2 1179   0.826   2.801   0.999  0.4012 -2.0794 -0.9495
  394SOL     OW 1180   2.047   2.289   2.856 -0.3446  0.0316  0.3286
  394SOL    HW1 1181   2.129   2.265   2.811 -0.5359 -2.0774  0.9810
  394SOL    HW2 1182   1.994   2.331   2.788  1.2819  1.5174 -0.0876
  395SOL     OW 1183   0.785   2.063   2.482  0.1264 -0.5381  0.3589
  395SOL    HW1 1184   0.865   2.010   2.484  0.7703  0.3707  2.9800
  395SOL    HW2 1185   0.721   2.009   2.436  1.4775 -2.4551  0.6130
  396SOL     OW 1186   0.612   2.693   0.266 -0.5368  0.2959  0.1186
  396SOL    HW1 1187   0.655   2.776   0.290 -0.3793  0.3940 -0.4828
  396SOL    HW2 1188   0.676   2.649   0.209 -0.2425 -0.6469  1.1441
  397SOL     OW 1189   0.103   0.906   0.379 -0.5961  0.1333  0.1822
  397SOL    HW1 1190   0.163   0.901   0.304 -1.3202 -1.0364 -0.3463
  397SOL    HW2 1191   0.047   0.829   0.369 -1.6883  0.7996  1.0891
  398SOL     OW 1192   1.482   2.152   0.953 -0.1281 -0.4354  0.5580
  398SOL    HW1 1193   1.456   2.078   0.898  0.9524  0.4663 -1.2561
  398SOL    HW2 1194   1.576   2.162   0.938 -0.0993  0.7936  1.4028
  399SOL     OW 1195   1.459   2.270   1.661 -1.1468 -0.2477 -0.1194
  399SOL    HW1 1196   1.464   2.202   1.593  0.2143 -1.8126  1.4452
  399SOL    HW2 1197   1.380   2.249   1.710  0.2020 -1.9365  1.4863
  400SOL     OW 1198   2.875   2.021   0.942  0.3400 -0.2766 -0.4304
  400SOL    HW1 1199   2.862   2.111   0.913  1.1880  0.0432  0.1591
  400SOL    HW2 1200   2.825   1.968   0.880 -0.2642  0.6048 -0.7041
  401SOL     OW 1201   0.516   1.272   1.589 -0.2164 -0.1468 -0.0465
  401SOL    HW1 1202   0.606   1.292   1.615 -0.0218  1.1061 -1.5534
  401SOL    HW2 1203   0.507   1.178   1.607  1.4753 -0.3666 -0.0950
  402SOL     OW 1204   0.902   2.939   1.539 -0.1793 -0.6739 -0.5628
  402SOL    HW1 1205   0.992   2.951   1.510  0.3449  0.2690  1.3060
  402SOL    HW2 1206   0.902   2.856   1.586 -0.1718 -0.4994 -0.2457
  403SOL     OW 1207   1.030   1.676   1.421  0.1838  0.1748 -0.1842
  403SOL    HW1 1208   1.017   1.584   1.445 -1.7154  0.1730 -1.1042
  403SOL    HW2 1209   1.124   1.690   1.433  0.5736 -1.9715 -0.3364
  404SOL     OW 1210   1.835   0.617   2.678 -0.0936  0.4390  0.7492
  404SOL    HW1 1211   1.908   0.643   2.733 -0.6560 -0.3699  1.9222
  404SOL    HW2 1212   1.759   0.617   2.737 -0.6247 -0.9343  0.1164
  405SOL     OW 1213   2.907   0.855   1.331  0.4197 -0.7198 -0.1063
  405SOL    HW1 1214   2.825   0.806   1.323  0.4809 -0.8473  0.0265
  405SOL    HW2 1215   2.956   0.808   1.399 -0.1290  0.3691  1.1041
  406SOL     OW 1216   1.672   2.378   1.836  0.0786  0.1701 -0.0038
  406SOL    HW1 1217   1.615   2.328   1.777  1.4877 -2.3934  0.7027
  406SOL    HW2 1218   1.622   2.385   1.917  0.9060 -2.6069  0.8226
  407SOL     OW 1219   0.705   1.375   1.184  0.0355 -0.7321  0.2748
  407SOL    HW1 1220   0.714   1.421   1.101 -1.3025 -2.1023 -0.6830
  407SOL    HW2 1221   0.669   1.441   1.244  0.0385 -0.0050 -0.5086
  408SOL     OW 1222   0.412   0.624   1.288 -0.0042 -0.4268 -0.2706
  408SOL    HW1 1223   0.462   0.631   1.206 -0.4575  1.1373 -0.4510
  408SOL    HW2 1224   0.392   0.531   1.296  0.2696 -0.6449 -1.8125
  409SOL     OW 1225   2.172   2.080   0.115 -0.8307 -0.4827 -0.6210
  409SOL    HW1 1226   2.225   2.129   0.177 -2.0857  0.4650 -0.2593
  409SOL    HW2 1227   2.099   2.047   0.167 -0.4385 -2.0826 -1.0268
  410SOL     OW 1228   1.061   2.852   0.742 -0.3288  0.0714 -0.2974
  410SOL    HW1 1229   0.966   2.840   0.740 -0.5098  1.1237  0.8715
  410SOL    HW2 1230   1.096   2.765   0.756 -0.9541 -0.7460 -3.0982
  411SOL     OW 1231   0.196   1.380   2.689  0.3945 -0.3549 -0.5577
  411SOL    HW1 1232   0.215   1.446   2.755 -1.8633 -3.5960  3.8845
  411SOL    HW2 1233   0.112   1.406   2.651  0.8835  0.6705 -0.9734
  412SOL     OW 1234   1.770   0.906   2.936  0.5065  0.3014  0.3990
  412SOL    HW1 1235   1.677   0.924   2.947  0.3693  0.0352 -0.2971
  412SOL    HW2 1236   1.814   0.979   2.979 -0.0019 -0.0789  1.6399
  413SOL     OW 1237   0.370   2.642   2.817 -0.1858 -0.0747  0.2995
  413SOL    HW1 1238   0.342   2.638   2.908 -0.4258  0.8459  0.2749
  413SOL    HW2 1239   0.446   2.700   2.817 -0.6341  0.5347 -0.1782
  414SOL     OW 1240   1.173   2.344   2.734 -0.1468  0.0049 -0.2037
  414SOL    HW1 1241   1.158   2.253   2.712 -0.1690 -0.0619  0.0824
  414SOL    HW2 1242   1.259   2.346   2.775 -0.4344  0.0061  0.4083
  415SOL     OW 1243   2.487   1.050   2.152  0.1435  0.1609  0.0208
  415SOL    HW1 1244   2.411   1.089   2.195 -0.1638 -1.3518  0.9055
  415SOL    HW2 1245   2.467   1.053   2.058 -1.3999 -0.9805  0.2888
  416SOL     OW 1246   2.751   0.795   0.079  0.2893 -0.1244 -0.4625
  416SOL    HW1 1247   2.737   0.760   0.167  0.3702 -0.4263 -0.5670
  416SOL    HW2 1248   2.832   0.846   0.085  0.9069 -1.0558 -0.6157
  417SOL     OW 1249   2.441   2.888   1.609  0.3991  0.0263  0.2294
  417SOL    HW1 1250   2.442   2.819   1.542 -0.5096 -2.5003  2.6103
  417SOL    HW2 1251   2.358   2.875   1.656  0.2837  2.6840  0.9447
  418SOL     OW 1252   0.418   0.382   1.862  0.4817 -0.0243 -0.3038
  418SOL    HW1 1253   0.382   0.327   1.931 -1.8771 -0.8004 -2.0060
  418SOL    HW2 1254   0.425   0.469   1.901 -3.5353  0.2547  0.2780
  419SOL     OW 1255   1.927   0.979   0.654 -0.3384 -0.2754  0.1714
  419SOL    HW1 1256   1.983   0.992   0.577 -1.3489  0.6490 -0.4401
  419SOL    HW2 1257   1.942   0.888   0.680  4.1409  0.7535  2.2156
  420SOL     OW 1258   0.361   1.187   0.948 -0.3177  0.6490 -0.1556
  420SOL    HW1 1259   0.277   1.160   0.985 -0.0973  0.5498  0.2712
  420SOL    HW2 1260   0.341   1.210   0.857 -0.8025  0.6061 -0.0592
  421SOL     OW 1261   2.682   2.498   0.165  0.0365  0.6709 -0.6436
  421SOL    HW1 1262   2.609   2.447   0.198  0.2377  1.0267  0.3716
  421SOL    HW2 1263   2.641   2.571   0.117 -0.3091  1.2915  0.5508
  422SOL     OW 1264   1.977   1.175   2.447  0.5708  0.6935 -0.0866
  422SOL    HW1 1265   1.960   1.256   2.495  0.5886  0.4447  0.3447
  422SOL    HW2 1266   1.893   1.129   2.446  0.6920  0.4624  0.1558
  423SOL     OW 1267   2.012   0.327   2.477  0.3277  0.1274 -0.6103
  423SOL    HW1 1268   2.018   0.403   2.535 -0.8945 -0.8813  0.9339
  423SOL    HW2 1269   1.956   0.357   2.405  0.8532  1.0401 -0.6503
  424SOL     OW 1270   2.509   0.753   0.280  0.0350  0.6133 -0.1200
  424SOL    HW1 1271   2.555   0.727   0.359  0.7503 -0.3288 -0.8122
  424SOL    HW2 1272   2.417   0.741   0.300  0.2003  0.5996  0.6357
  425SOL     OW 1273   1.926   0.420   1.298  0.2041  0.4839  0.4210
  425SOL    HW1 1274   1.977   0.381   1.369  0.9502  1.1403  0.2529
  425SOL    HW2 1275   1.919   0.512   1.321  0.4092  0.6924 -0.3330
  426SOL     OW 1276   0.282   0.556   2.309 -0.4831  0.4631 -0.3068
  426SOL    HW1 1277   0.370   0.519   2.306 -0.8886 -0.4988 -0.6439
  426SOL    HW2 1278   0.230   0.493   2.359 -1.0658  0.8392 -0.4187
  427SOL     OW 1279   0.943   2.331   1.642  0.1897  0.3369  0.6529
  427SOL    HW1 1280   0.935   2.417   1.602 -0.3459 -1.0048 -2.3471
  427SOL    HW2 1281   0.867   2.325   1.701 -0.6246  1.3591 -0.2470
  428SOL     OW 1282   0.078   2.157   1.099  0.2619 -0.4778  0.0075
  428SOL    HW1 1283   0.048   2.080   1.052 -2.3036  0.1331  0.4656
  428SOL    HW2 1284   0.065   2.230   1.038  0.7573 -0.1800  0.2520
  429SOL     OW 1285   0.017   2.916   2.210  0.8932  0.4168  0.2557
  429SOL    HW1 1286  -0.013   2.985   2.269 -1.4259  0.3929 -0.7801
  429SOL    HW2 1287   0.109   2.905   2.231  0.7719  2.2101  2.0460
  430SOL     OW 1288   0.294   1.702   2.283 -0.9427  0.1433 -0.3005
  430SOL    HW1 1289   0.340   1.682   2.364 -2.0836  0.6744  0.5167
  430SOL    HW2 1290   0.333   1.783   2.252 -1.9173  1.0976  0.8876
  431SOL     OW 1291   0.612   1.130   1.075  0.0801 -0.3390 -0.1076
  431SOL    HW1 1292   0.526   1.136   1.035 -1.3635  0.3556  2.7895
  431SOL    HW2 1293   0.622   1.213   1.123  2.5862 -0.2049 -0.6803
  432SOL     OW 1294   2.111   1.594   2.357 -1.0206  0.4327 -0.4156
  432SOL    HW1 1295   2.086   1.649   2.283 -0.0055 -1.1112 -1.9662
  432SOL    HW2 1296   2.087   1.505   2.331  0.7766 -0.3563  0.4234
  433SOL     OW 1297   0.327   0.773   0.626  0.0656 -0.1522  0.0405
  433SOL    HW1 1298   0.372   0.837   0.571  0.8031  0.0577  0.8710
  433SOL    HW2 1299   0.293   0.825   0.699  0.9128 -0.7494  0.8679
  434SOL     OW 1300   0.027   1.672   0.329 -0.0274  0.0088  0.0369
  434SOL    HW1 1301   0.089   1.600   0.339 -0.6958 -0.3259  2.1854
  434SOL    HW2 1302  -0.044   1.653   0.391  0.0478  2.7868  1.1508
  435SOL     OW 1303   2.653   0.725   1.318 -0.2014 -0.0216 -0.2751
  435SOL    HW1 1304   2.621   0.648   1.365  0.7021 -0.2225  0.0311
  435SOL    HW2 1305   2.594   0.733   1.243 -0.5208 -0.8010 -0.1216
  436SOL     OW 1306   2.270   0.056   0.265  0.6196  0.0493 -0.0207
  436SOL    HW1 1307   2.340   0.076   0.326  1.2914  3.4516 -1.6487
  436SOL    HW2 1308   2.204   0.124   0.282 -1.5762 -2.0360  0.3065
  437SOL     OW 1309   1.889   2.518   1.663  0.2051 -0.0836  0.3843
  437SOL    HW1 1310   1.809   2.472   1.689 -0.1181  0.8076  0.9989
  437SOL    HW2 1311   1.861   2.608   1.648  1.5814  1.0228  3.6122
  438SOL     OW 1312   1.415   1.498   1.629 -0.7962  0.1936 -0.0492
  438SOL    HW1 1313   1.451   1.549   1.702  2.0663 -3.2380  1.2214
  438SOL    HW2 1314   1.343   1.448   1.668  1.1676 -2.1624  0.8365
  439SOL     OW 1315   0.233   0.904   1.700  0.0992 -0.1971  0.2905
  439SOL    HW1 1316   0.319   0.928   1.736  1.4078 -2.2672 -1.2264
  439SOL    HW2 1317   0.231   0.809   1.703 -2.6706 -0.1942  1.3073
  440SOL     OW 1318   1.703   1.346   0.862 -0.1319 -0.2776 -0.5112
  440SOL    HW1 1319   1.625   1.384   0.821 -0.6034 -0.7531 -0.0558
  440SOL    HW2 1320   1.679   1.256   0.882  0.5543 -0.4437 -0.4050
  441SOL     OW 1321   1.963   1.196   0.443  0.2977  0.6025 -0.1307
  441SOL    HW1 1322   2.032   1.161   0.386 -0.1302 -0.4089 -0.0389
  441SOL    HW2 1323   2.007   1.265   0.493  0.9793  0.6926 -0.8227
  442SOL     OW 1324   1.111   2.054   0.272 -0.1896 -0.7215  0.8475
  442SOL    HW1 1325   1.039   2.117   0.278  0.5110  0.1850  0.0372
  442SOL    HW2 1326   1.160   2.065   0.354 -1.6137 -2.2158  1.9783
  443SOL     OW 1327   0.657   1.596   2.063  0.0806  0.2162  0.2038
  443SOL    HW1 1328   0.708   1.662   2.110  0.6515  0.2830 -0.4749
  443SOL    HW2 1329   0.621   1.540   2.131 -0.2360  1.1011  0.7805
  444SOL     OW 1330   0.805   0.185   0.834 -0.3018 -0.4330  0.4475
  444SOL    HW1 1331   0.731   0.246   0.827  1.1039  1.5058  1.4176
  444SOL    HW2 1332   0.765   0.098   0.832 -2.6497  0.5433  1.2719
  445SOL     OW 1333   1.450   2.790   0.474  0.2155  0.2599 -0.5112
  445SOL    HW1 1334   1.478   2.702   0.449  1.4401  0.4179  0.2319
  445SOL    HW2 1335   1.422   2.831   0.392  2.3009  0.1302 -1.3342
  446SOL     OW 1336   1.699   1.099   2.477 -0.1130  0.4432 -0.3159
  446SOL    HW1 1337   1.720   1.031   2.413  0.5086  0.6930 -0.3804
  446SOL    HW2 1338   1.622   1.065   2.522 -0.5109  0.2192 -1.1319
  447SOL     OW 1339   2.963   1.491   2.633 -0.2785  0.1508 -0.5909
  447SOL    HW1 1340   2.949   1.582   2.659 -0.7396  0.2224 -1.0945
  447SOL    HW2 1341   2.926   1.484   2.545 -0.2764 -0.5332 -0.5448
  448SOL     OW 1342   2.667   2.142   2.602  0.1488 -0.8486 -0.8623
  448SOL    HW1 1343   2.723   2.101   2.536 -0.1564  1.2800 -2.5659
  448SOL    HW2 1344   2.579   2.136   2.566  0.0108  0.5917 -0.8236
  449SOL     OW 1345   1.006   0.877   2.669 -0.4018  0.0094  0.0964
  449SOL    HW1 1346   0.919   0.917   2.675 -0.0817  1.0827 -1.7649
  449SOL    HW2 1347   0.989   0.788   2.638 -0.8267  0.4836 -1.1123
  450SOL     OW 1348   0.485   0.076   1.700 -0.5260  0.6030 -0.2052
  450SOL    HW1 1349   0.543   0.141   1.738  0.0555  0.3593 -0.6586
  450SOL    HW2 1350   0.529   0.049   1.619 -0.5992 -0.5764  0.1263
  451SOL     OW 1351   0.530   2.137   0.339 -0.0926 -0.2030 -0.0555
  451SOL    HW1 1352   0.597   2.180   0.393 -0.6198  0.9443 -0.2904
  451SOL    HW2 1353   0.481   2.209   0.299 -1.8562 -0.9856  0.5773
  452SOL     OW 1354   2.407   1.066   1.901 -0.1010  0.1252  0.4284
  452SOL    HW1 1355   2.321   1.105   1.913 -0.2493 -0.7202  2.5962
  452SOL    HW2 1356   2.397   1.007   1.826 -1.7258 -0.7078  1.2378
  453SOL     OW 1357   1.279   0.255   1.806 -0.0506 -0.0469  0.8241
  453SOL    HW1 1358   1.349   0.210   1.759 -0.7612 -0.5021  0.1888
  453SOL    HW2 1359   1.301   0.348   1.799  0.3692 -0.1732  0.4309
  454SOL     OW 1360   1.175   1.358   1.160 -0.3224  0.2086 -0.1307
  454SOL    HW1 1361   1.136   1.444   1.145 -0.0792  0.1740 -1.0088
  454SOL    HW2 1362   1.246   1.375   1.222 -0.4163  0.6093 -0.1269
  455SOL     OW 1363   0.171   2.197   0.504 -0.4843  0.7084  0.6783
  455SOL    HW1 1364   0.104   2.244   0.554 -0.4190 -0.7429  2.2221
  455SOL    HW2 1365   0.132   2.112   0.485  0.4608  0.2986  0.5185
  456SOL     OW 1366   1.342   0.995   1.237 -0.3222  0.0634 -0.4994
  456SOL    HW1 1367   1.256   1.029   1.260 -1.0280 -2.0226  0.1877
  456SOL    HW2 1368   1.331   0.956   1.151 -0.4776 -1.4805  0.1937
  457SOL     OW 1369   2.508   1.320   1.758  0.1073 -0.7751  0.1865
  457SOL    HW1 1370   2.422   1.338   1.796  0.4713 -0.6319  0.9570
  457SOL    HW2 1371   2.566   1.309   1.833  1.1767  1.1144 -0.2924
  458SOL     OW 1372   0.350   1.504   1.562 -0.4476 -0.4301  0.3466
  458SOL    HW1 1373   0.262   1.475   1.537 -0.4510  0.7204 -1.1010
  458SOL    HW2 1374   0.395   1.424   1.588 -1.8291 -1.0783  0.8720
  459SOL     OW 1375   1.979   0.018   0.775  0.0244 -0.2794 -0.2654
  459SOL    HW1 1376   1.945   0.087   0.718  0.5560 -0.9266 -1.4195
  459SOL    HW2 1377   2.072   0.037   0.783  0.0603 -0.5180 -0.1020
  460SOL     OW 1378   2.166   2.430   0.728  1.4124 -0.2024  0.0920
  460SOL    HW1 1379   2.248   2.427   0.778  0.9871  2.0291  1.0714
  460SOL    HW2 1380   2.138   2.522   0.734 -1.3284 -0.9509  0.0508
  461SOL     OW 1381   1.160   1.523   1.920 -0.7894  0.1676  0.2298
  461SOL    HW1 1382   1.169   1.433   1.887 -0.5282  0.6625 -1.1259
  461SOL    HW2 1383   1.065   1.538   1.922 -0.8549 -0.3130  0.9807
  462SOL     OW 1384   0.251   1.001   1.280 -1.0834  0.4194  0.0164
  462SOL    HW1 1385   0.204   0.918   1.269 -0.6024  0.0614  0.6175
  462SOL    HW2 1386   0.214   1.058   1.212  0.3841 -1.0685 -2.1632
  463SOL     OW 1387   2.442   0.149   0.476 -0.1258 -0.1060  0.4097
  463SOL    HW1 1388   2.430   0.118   0.566  0.3032  0.8664  0.8193
  463SOL    HW2 1389   2.486   0.233   0.486 -1.8697  0.9993 -0.6145
  464SOL     OW 1390   1.329   0.866   1.003  0.9256  0.1076  0.1598
  464SOL    HW1 1391   1.345   0.943   0.949  3.2062 -0.6950 -0.4020
  464SOL    HW2 1392   1.365   0.793   0.953  1.1076 -0.9781  1.7730
  465SOL     OW 1393   1.273   1.642   0.511  0.1875  0.3611  0.2388
  465SOL    HW1 1394   1.186   1.659   0.475 -0.4455 -0.2118  1.4469
  465SOL    HW2 1395   1.257   1.587   0.587  1.5952  0.4496  0.6208
  466SOL     OW 1396   0.414   1.308   1.308  0.4130 -0.3649 -0.2122
  466SOL    HW1 1397   0.473   1.365   1.357  1.9496 -1.2827 -0.9190
  466SOL    HW2 1398   0.412   1.226   1.358  1.3269 -1.0160 -1.1965
  467SOL     OW 1399   0.088   2.971   1.294  0.0913  0.1683 -0.0962
  467SOL    HW1 1400   0.050   3.049   1.333 -0.3740 -0.7630  1.4138
  467SOL    HW2 1401   0.013   2.911   1.283  0.7177 -0.7714  0.5857
  468SOL     OW 1402   2.528   1.491   0.122  0.3702  0.4936 -0.0146
  468SOL    HW1 1403   2.526   1.426   0.193 -0.9850 -0.1380 -0.5992
  468SOL    HW2 1404   2.579   1.564   0.158 -0.5748  0.3455  1.7616
  469SOL     OW 1405   2.722   1.680   1.155  0.0159 -0.1045  0.5551
  469SOL    HW1 1406   2.784   1.674   1.082 -0.5114 -1.1961  0.1765
  469SOL    HW2 1407   2.743   1.763   1.197 -0.3330  1.0740 -1.4569
  470SOL     OW 1408   1.170   1.492   0.734  0.3962  0.2116 -0.2935
  470SOL    HW1 1409   1.126   1.577   0.737  1.8256  1.0414 -1.4835
  470SOL    HW2 1410   1.099   1.428   0.730 -0.7596  1.5132 -2.6742
  471SOL     OW 1411   0.856   0.260   0.546  0.2876  0.6288 -0.0798
  471SOL    HW1 1412   0.897   0.333   0.501  0.6664  0.8541  0.6227
  471SOL    HW2 1413   0.894   0.261   0.634  0.5033 -0.5846 -0.1509
  472SOL     OW 1414   0.632   2.888   0.512  0.0414 -0.4809 -0.8477
  472SOL    HW1 1415   0.718   2.923   0.489  1.1920 -0.5732  2.7907
  472SOL    HW2 1416   0.571   2.959   0.493  1.4036  0.9029 -0.2269
  473SOL     OW 1417   0.052   1.654   0.052 -0.1364 -0.3669  0.2777
  473SOL    HW1 1418   0.031   1.743   0.022 -1.1848 -0.6982 -0.0218
  473SOL    HW2 1419   0.029   1.654   0.145  2.3778  0.4305  0.9671
  474SOL     OW 1420   2.296   1.218   0.770  0.1878 -0.2871  0.3546
  474SOL    HW1 1421   2.236   1.288   0.743 -1.0004 -1.4829 -0.2350
  474SOL    HW2 1422   2.243   1.162   0.827  0.6467 -1.5488 -0.4312
  475SOL     OW 1423   2.381   2.444   2.591  0.3387  0.7347 -0.1748
  475SOL    HW1 1424   2.358   2.456   2.499 -0.0105  0.5528 -0.1142
  475SOL    HW2 1425   2.320   2.377   2.622  0.0452  1.2281  0.3460
  476SOL     OW 1426   0.809   0.191   2.495  0.7977 -0.2720 -0.3931
  476SOL    HW1 1427   0.720   0.161   2.474 -0.1353  0.8987  1.5598
  476SOL    HW2 1428   0.817   0.275   2.449  0.4154  0.1838  0.3458
  477SOL     OW 1429   2.395   2.288   0.839 -0.0259  0.2202 -0.3134
  477SOL    HW1 1430   2.312   2.260   0.878  0.7524 -1.2049  0.4102
  477SOL    HW2 1431   2.452   2.303   0.914  1.2862 -1.8529 -0.8183
  478SOL     OW 1432   2.840   1.336   0.506 -0.0640 -0.5246 -0.1722
  478SOL    HW1 1433   2.934   1.353   0.506 -0.0859  0.1730  2.8363
  478SOL    HW2 1434   2.830   1.256   0.558 -1.1391 -0.7238 -0.6442
  479SOL     OW 1435   1.459   0.995   2.591  0.2868  0.3652 -0.2497
  479SOL    HW1 1436   1.420   0.912   2.563 -0.2200  1.2799 -2.5646
  479SOL    HW2 1437   1.383   1.053   2.604  0.5504  2.0681 -4.4599
  480SOL     OW 1438   1.034   1.929   1.213 -0.0056 -0.1682  0.4516
  480SOL    HW1 1439   1.027   1.996   1.281  0.1381  1.3136 -0.9085
  480SOL    HW2 1440   1.091   1.969   1.147 -0.3679 -1.4238 -0.6604
  481SOL     OW 1441   1.114   2.465   2.499  0.0515  0.1483 -0.0945
  481SOL    HW1 1442   1.028   2.436   2.469  0.5521 -1.3972 -0.1154
  481SOL    HW2 1443   1.120   2.436   2.590  1.0355 -0.9008 -0.4773
  482SOL     OW 1444   2.431   2.756   1.388 -0.1108  0.4510  0.4374
  482SOL    HW1 1445   2.387   2.819   1.330  0.1939 -0.1892 -0.5111
  482SOL    HW2 1446   2.397   2.671   1.360  0.4376  0.0948  0.8496
  483SOL     OW 1447   0.978   2.041   2.792  0.4454  0.5580  0.0290
  483SOL    HW1 1448   0.932   2.124   2.774 -1.4324 -0.1977  1.0592
  483SOL    HW2 1449   0.929   1.975   2.743  2.2194  0.0610 -1.1796
  484SOL     OW 1450   1.689   0.211   1.851  0.0556 -0.8129  0.5692
  484SOL    HW1 1451   1.742   0.289   1.867 -0.4655 -0.2356 -0.4062
  484SOL    HW2 1452   1.752   0.139   1.850  0.7128 -0.2471  0.2800
  485SOL     OW 1453   0.333   0.330   1.449 -0.1611  0.0716 -0.4821
  485SOL    HW1 1454   0.278   0.274   1.504  1.4240 -1.8542 -0.7568
  485SOL    HW2 1455   0.293   0.326   1.362 -0.8945  0.5936 -0.1765
  486SOL     OW 1456   1.610   0.306   1.539 -0.0678 -0.0594  0.0468
  486SOL    HW1 1457   1.656   0.378   1.584  0.0130  0.3822 -0.7324
  486SOL    HW2 1458   1.656   0.227   1.569  0.8187  0.3281 -0.2395
  487SOL     OW 1459   3.014   2.433   2.970 -0.3279  0.0235 -0.0308
  487SOL    HW1 1460   2.921   2.434   2.947 -0.3157 -1.2232 -0.2203
  487SOL    HW2 1461   3.017   2.390   3.056  0.0680  0.0844 -0.0125
  488SOL     OW 1462   2.514   2.712   1.979  0.4373  0.1188  0.5113
  488SOL    HW1 1463   2.599   2.722   1.936  1.2220  0.3935  2.0462
  488SOL    HW2 1464   2.536   2.691   2.070 -1.0900  3.2051  1.7033
  489SOL     OW 1465   1.220   0.950   2.112 -0.0147 -0.2265  0.1239
  489SOL    HW1 1466   1.278   0.984   2.180  0.1717  1.2022 -0.7124
  489SOL    HW2 1467   1.143   1.006   2.116  0.2087  0.2018 -1.1454
  490SOL     OW 1468   2.060   2.775   1.486  0.3282  0.1278  0.1930
  490SOL    HW1 1469   1.980   2.800   1.440  0.9866  1.3282 -0.3476
  490SOL    HW2 1470   2.090   2.697   1.441  0.5556  0.8527 -0.9522
  491SOL     OW 1471   1.255   0.701   1.448 -0.0613  0.1952  0.1836
  491SOL    HW1 1472   1.346   0.732   1.445 -0.8187  2.6234 -0.6409
  491SOL    HW2 1473   1.217   0.745   1.524 -0.8804  0.3531 -0.3032
  492SOL     OW 1474   0.374   1.572   0.115  0.9663  0.2372 -0.5748
  492SOL    HW1 1475   0.329   1.594   0.033  1.3080  0.9031 -0.5868
  492SOL    HW2 1476   0.317   1.507   0.157  0.0709  0.9620 -0.6520
  493SOL     OW 1477   2.904   0.047   0.402 -0.1237  0.4473  0.4271
  493SOL    HW1 1478   2.821   0.001   0.412 -0.8049  1.7845  1.3560
  493SOL    HW2 1479   2.894   0.126   0.455  1.6321  0.8076  0.3033
  494SOL     OW 1480   2.212   1.306   1.360  0.0437  0.4329 -0.3001
  494SOL    HW1 1481   2.212   1.383   1.303  0.6791  1.7456  1.3632
  494SOL    HW2 1482   2.232   1.233   1.302 -0.7705  1.4795 -1.9772
  495SOL     OW 1483   0.098   2.594   0.714  0.1034  0.4320  0.3551
  495SOL    HW1 1484   0.007   2.620   0.696  0.8285  2.0753 -1.2955
  495SOL    HW2 1485   0.147   2.676   0.712  1.5604 -0.3496  1.8650
  496SOL     OW 1486   0.959   0.263   1.571 -0.1618 -0.3560  0.4887
  496SOL    HW1 1487   0.911   0.254   1.489 -0.5025 -0.3011  0.6759
  496SOL    HW2 1488   1.017   0.338   1.558 -0.1833 -0.3759  0.2839
  497SOL     OW 1489   1.915   2.293   1.440 -0.4179  0.2501  0.3967
  497SOL    HW1 1490   1.915   2.220   1.502 -0.7811  0.3202  0.4784
  497SOL    HW2 1491   1.916   2.372   1.495 -0.2173  0.3115  0.3093
  498SOL     OW 1492   1.853   0.823   2.029  0.5410 -1.2230  0.1090
  498SOL    HW1 1493   1.901   0.771   1.965 -0.6150 -1.8168 -0.2912
  498SOL    HW2 1494   1.803   0.886   1.977  2.0265  0.4526  0.5873
  499SOL     OW 1495   1.267   0.135   2.043 -0.1338 -0.1568  0.7724
  499SOL    HW1 1496   1.276   0.175   1.957  0.7193 -0.5931  0.6485
  499SOL    HW2 1497   1.261   0.208   2.104 -0.3893  0.1508  0.3846
  500SOL     OW 1498   0.275   1.574   1.808 -0.1978  0.0292 -0.3080
  500SOL    HW1 1499   0.286   1.549   1.716  1.1107  0.0789 -0.1763
  500SOL    HW2 1500   0.356   1.618   1.831  0.1191 -1.2914  1.3010
  501SOL     OW 1501   1.745   0.089   0.331  0.2608  0.1116  0.2328
  501SOL    HW1 1502   1.820   0.029   0.330 -0.8242 -1.2845 -1.5266
  501SOL    HW2 1503   1.711   0.083   0.420  2.2829  0.8879  1.1197
  502SOL     OW 1504   2.640   0.704   1.766  0.2424 -0.2845  0.3983
  502SOL    HW1 1505   2.664   0.792   1.797  0.3649  0.0230 -0.5249
  502SOL    HW2 1506   2.643   0.649   1.844  2.5267  0.0325  0.6080
  503SOL     OW 1507   0.882   1.135   1.083 -0.4026 -0.1571  0.2976
  503SOL    HW1 1508   0.788   1.151   1.083 -0.4298 -0.0890  2.0591
  503SOL    HW2 1509   0.921   1.223   1.078 -0.4624 -0.0760  1.1328
  504SOL     OW 1510   1.888   2.201   1.190 -0.1103  0.2079 -0.2812
  504SOL    HW1 1511   1.885   2.110   1.220 -0.1661 -0.0998 -1.2120
  504SOL    HW2 1512   1.913   2.250   1.268 -1.2730 -0.4603  0.5405
  505SOL     OW 1513   0.761   2.543   2.836  0.0327 -0.2982 -0.1098
  505SOL    HW1 1514   0.798   2.630   2.818  0.5093 -0.1093  1.6304
  505SOL    HW2 1515   0.750   2.541   2.931  0.2171 -2.2278 -0.0966
  506SOL     OW 1516   2.050   2.709   0.776 -0.0428 -0.0034 -0.1716
  506SOL    HW1 1517   1.993   2.786   0.782  1.4889  1.2134 -0.5777
  506SOL    HW2 1518   2.031   2.659   0.855 -0.7838  1.0116  0.3161
  507SOL     OW 1519   2.777   1.123   0.680 -0.0414 -0.2500 -0.4531
  507SOL    HW1 1520   2.703   1.137   0.739 -0.3311  0.0664 -0.8863
  507SOL    HW2 1521   2.758   1.041   0.635 -1.4963  1.1481 -2.5458
  508SOL     OW 1522   0.130   1.151   1.828  0.2336 -0.0407 -0.2414
  508SOL    HW1 1523   0.185   1.079   1.796  1.4383  1.3720 -1.4827
  508SOL    HW2 1524   0.074   1.173   1.755 -1.9919 -1.3497  0.9637
  509SOL     OW 1525   0.660   0.936   0.686  0.0482 -0.2694 -0.4975
  509SOL    HW1 1526   0.620   0.884   0.756  0.6452  0.7728  0.6408
  509SOL    HW2 1527   0.614   0.907   0.606 -0.2720 -1.8628  0.2149
  510SOL     OW 1528   1.945   0.748   0.399  0.0137 -0.5368 -0.0316
  510SOL    HW1 1529   1.992   0.800   0.334 -0.6537 -0.5220 -0.5157
  510SOL    HW2 1530   1.968   0.657   0.380  0.6387 -0.4703  0.3799
  511SOL     OW 1531   2.469   0.516   0.131  0.4641  0.2586 -0.5548
  511SOL    HW1 1532   2.522   0.546   0.057  0.0826  1.1730 -0.4704
  511SOL    HW2 1533   2.487   0.580   0.200  1.6337 -1.1665  0.5224
  512SOL     OW 1534   2.265   0.570   1.967  0.0459 -0.3543  0.0533
  512SOL    HW1 1535   2.271   0.662   1.991 -2.4435  0.0604 -0.6266
  512SOL    HW2 1536   2.299   0.565   1.878  1.1331 -0.3073  0.4526
  513SOL     OW 1537   1.174   2.053   2.985 -0.4385 -0.2327 -0.1921
  513SOL    HW1 1538   1.104   2.039   2.922 -1.9521 -1.3076  1.6149
  513SOL    HW2 1539   1.130   2.054   3.070  1.6829 -0.4941  0.9911
  514SOL     OW 1540   0.550   0.489   2.375 -0.1162  0.4065  0.4975
  514SOL    HW1 1541   0.624   0.541   2.404  0.1935  0.4786 -0.3786
  514SOL    HW2 1542   0.489   0.489   2.449 -0.0160  1.8087  0.5976
  515SOL     OW 1543   0.123   0.963   2.588 -0.1855 -0.0350 -0.4744
  515SOL    HW1 1544   0.170   0.894   2.633  0.1133 -0.7806 -1.8930
  515SOL    HW2 1545   0.034   0.929   2.579  0.0699 -0.4583 -1.5720
  516SOL     OW 1546   0.247   2.424   2.722 -0.2442 -1.0148 -0.4238
  516SOL    HW1 1547   0.313   2.410   2.655 -0.3916 -2.4685 -0.3027
  516SOL    HW2 1548   0.273   2.506   2.765  1.0034 -1.1417 -0.9047
  517SOL     OW 1549   2.247   0.262   0.795  0.1195 -0.3009 -0.0227
  517SOL    HW1 1550   2.209   0.342   0.832  1.0095  0.1217 -0.0090
  517SOL    HW2 1551   2.243   0.275   0.700 -0.7209 -0.7111 -0.0521
  518SOL     OW 1552   2.746   2.066   0.281 -0.6053  0.1118 -0.2624
  518SOL    HW1 1553   2.796   2.010   0.339  0.8055  2.1892  0.6688
  518SOL    HW2 1554   2.739   2.017   0.199  0.7266 -1.2932  0.4261
  519SOL     OW 1555   2.272   1.198   2.233 -0.4455 -0.1004 -0.0135
  519SOL    HW1 1556   2.259   1.273   2.290 -2.6520 -0.8071  0.5129
  519SOL    HW2 1557   2.239   1.226   2.148 -0.6772 -0.2766  0.0191
  520SOL     OW 1558   1.936   0.324   2.881  0.2279  0.2383  0.4178
  520SOL    HW1 1559   1.867   0.379   2.919  0.5790  1.1054 -0.1795
  520SOL    HW2 1560   1.889   0.264   2.823 -0.0391  0.7487  0.1017
  521SOL     OW 1561   2.522   1.516   1.077  0.5305 -0.1549 -0.2399
  521SOL    HW1 1562   2.544   1.526   0.984  1.3713 -0.4770 -0.0875
  521SOL    HW2 1563   2.585   1.572   1.122  0.3477 -0.2681  0.1613
  522SOL     OW 1564   2.304   0.844   2.973  0.1717 -0.2829  0.1846
  522SOL    HW1 1565   2.237   0.910   2.955  0.8829  0.3827 -0.0748
  522SOL    HW2 1566   2.258   0.776   3.023 -1.2573 -0.9711 -1.9169
  523SOL     OW 1567   0.016   2.576   2.616 -0.1278  0.1370  0.1906
  523SOL    HW1 1568  -0.054   2.511   2.617  0.5019 -0.5742 -0.2573
  523SOL    HW2 1569   0.091   2.531   2.655 -0.0105  1.0076  1.0035
  524SOL     OW 1570   1.928   1.227   1.503 -0.0205  0.2902  0.4474
  524SOL    HW1 1571   1.902   1.139   1.475 -1.1585  0.6215  0.4375
  524SOL    HW2 1572   1.969   1.266   1.425 -1.2722  0.4512 -0.1533
  525SOL     OW 1573   0.459   2.904   2.891  0.4476  0.2447 -0.2308
  525SOL    HW1 1574   0.433   2.976   2.948 -0.8082  0.6354 -1.2552
  525SOL    HW2 1575   0.476   2.946   2.806  0.8923 -0.5113 -0.5272
  526SOL     OW 1576   1.500   0.649   0.172 -0.0877 -0.4937  0.3662
  526SOL    HW1 1577   1.476   0.676   0.261 -0.4304 -0.0851  0.1520
  526SOL    HW2 1578   1.594   0.632   0.177  0.4104  1.9119  0.2425
  527SOL     OW 1579   0.991   1.141   0.034  0.2556 -0.2252  0.0808
  527SOL    HW1 1580   0.970   1.122   0.125 -0.3030 -0.9627 -0.1944
  527SOL    HW2 1581   1.087   1.133   0.029  0.3242  0.2087  0.6810
  528SOL     OW 1582   2.233   0.182   1.955 -0.0832  0.5191  0.1561
  528SOL    HW1 1583   2.250   0.098   1.998 -0.6559  0.8910  1.1319
  528SOL    HW2 1584   2.253   0.248   2.022 -1.3870  1.1017 -0.0098
  529SOL     OW 1585   1.624   0.275   0.174 -0.2056 -0.0040 -0.5752
  529SOL    HW1 1586   1.679   0.216   0.225 -0.6232  0.2793  0.2159
  529SOL    HW2 1587   1.534   0.254   0.201 -0.2844  2.9452  1.9774
  530SOL     OW 1588   2.812   2.038   2.385 -0.6121  0.4408 -0.3314
  530SOL    HW1 1589   2.823   2.129   2.359  0.9429  0.3834  0.0389
  530SOL    HW2 1590   2.783   1.994   2.305 -0.4014  1.0836 -0.7728
  531SOL     OW 1591   1.079   0.086   1.743 -0.7176 -0.7317 -0.2655
  531SOL    HW1 1592   1.149   0.132   1.791  1.1894 -0.4950 -3.0309
  531SOL    HW2 1593   1.058   0.145   1.670 -3.4538 -1.0877  0.1451
  532SOL     OW 1594   1.352   1.943   0.792 -0.1713 -0.3531 -0.1473
  532SOL    HW1 1595   1.385   1.885   0.723 -1.0126 -1.1778  0.1187
  532SOL    HW2 1596   1.308   1.884   0.854  0.3793  0.4001  0.9882
  533SOL     OW 1597   2.294   1.497   1.953  0.5470  0.4047  0.0485
  533SOL    HW1 1598   2.284   1.402   1.955 -0.1039  0.4664 -0.2074
  533SOL    HW2 1599   2.237   1.527   1.882  0.1686  1.0535  0.6101
  534SOL     OW 1600   0.233   2.574   0.038 -0.0616 -0.0247 -0.2266
  534SOL    HW1 1601   0.152   2.549  -0.007 -0.5228 -1.7932  1.4417
  534SOL    HW2 1602   0.203   2.621   0.116  0.4047 -1.6008  0.9489
  535SOL     OW 1603   2.973   0.288   2.014  0.0410 -0.3246 -0.2381
  535SOL    HW1 1604   2.888   0.265   2.051 -0.2560 -0.4984 -0.9979
  535SOL    HW2 1605   2.978   0.384   2.022 -0.3645 -0.2827 -0.4686
  536SOL     OW 1606   1.057   0.553   2.285 -0.9492  0.1876  0.1980
  536SOL    HW1 1607   0.989   0.521   2.225  0.1816  0.5328 -1.3382
  536SOL    HW2 1608   1.025   0.638   2.314 -1.1567  0.3705 -0.5495
  537SOL     OW 1609   0.242   2.098   1.309 -0.0027 -0.3785  0.1123
  537SOL    HW1 1610   0.287   2.019   1.279 -0.7052 -0.9404  0.4740
  537SOL    HW2 1611   0.187   2.124   1.235  0.2202 -0.2397 -0.0031
  538SOL     OW 1612   1.128   2.893   1.030  0.4330 -0.0023 -0.0265
  538SOL    HW1 1613   1.033   2.887   1.045  0.2710  2.2384  0.1291
  538SOL    HW2 1614   1.136   2.906   0.936  0.5671  0.2861  0.0265
  539SOL     OW 1615   2.329   1.434   2.396  0.2071 -0.1293  0.4407
  539SOL    HW1 1616   2.362   1.436   2.486  1.8526  0.9728 -0.1367
  539SOL    HW2 1617   2.280   1.516   2.386 -0.8348 -0.7154  0.6104
  540SOL     OW 1618   1.719   2.745   1.580  0.4898 -0.0477  0.1955
  540SOL    HW1 1619   1.658   2.710   1.645  0.0554 -0.0874 -0.2346
  540SOL    HW2 1620   1.687   2.712   1.496  1.5808 -0.7812  0.0432
  541SOL     OW 1621   2.010   0.310   1.861  0.3314 -0.5724  0.5028
  541SOL    HW1 1622   2.089   0.256   1.854  1.6654  1.4546 -1.3228
  541SOL    HW2 1623   1.995   0.319   1.955  0.6189 -3.2223  0.8748
  542SOL     OW 1624   0.122   1.722   0.618 -0.5468 -0.0960  0.1415
  542SOL    HW1 1625   0.202   1.740   0.668  0.6850 -1.4870 -1.1829
  542SOL    HW2 1626   0.091   1.638   0.651  1.1378 -1.8091 -2.2583
  543SOL     OW 1627   0.744   2.932   2.953  0.6779  0.4046 -0.2444
  543SOL    HW1 1628   0.802   2.872   2.905  0.2595 -1.4397  1.3956
  543SOL    HW2 1629   0.662   2.931   2.904  0.4440 -0.9981  0.1115
  544SOL     OW 1630   2.855   2.585   1.677  0.2320  0.1473 -0.1410
  544SOL    HW1 1631   2.815   2.505   1.643  0.4100  0.0942 -0.2220
  544SOL    HW2 1632   2.948   2.576   1.658  0.6728 -0.7762  2.0861
  545SOL     OW 1633   1.357   0.248   0.266 -0.4099  0.0461 -0.0205
  545SOL    HW1 1634   1.371   0.248   0.360 -0.6958  1.1432  0.0418
  545SOL    HW2 1635   1.386   0.162   0.237  1.0716  0.2050  0.8627
  546SOL     OW 1636   1.450   1.844   0.559  0.0622  0.4045 -0.1991
  546SOL    HW1 1637   1.380   1.780   0.573  0.6710 -0.4023 -0.7304
  546SOL    HW2 1638   1.501   1.808   0.487  0.3567  1.5640 -0.5959
  547SOL     OW 1639   1.641   1.382   1.897 -0.6743  0.1452  0.8750
  547SOL    HW1 1640   1.647   1.435   1.817  1.9934 -0.1408  0.8248
  547SOL    HW2 1641   1.575   1.428   1.950 -2.1958  0.5782 -1.2633
  548SOL     OW 1642   0.462   2.497   1.028  0.4662  0.0139 -0.1671
  548SOL    HW1 1643   0.372   2.526   1.012  1.2375  2.4182 -0.6727
  548SOL    HW2 1644   0.483   2.530   1.116  1.2834  0.8296 -0.6381
  549SOL     OW 1645   1.338   1.377   1.382 -0.2088 -0.1191  0.0811
  549SOL    HW1 1646   1.356   1.450   1.441 -1.4451  1.3170 -1.2276
  549SOL    HW2 1647   1.417   1.323   1.387  0.3116  0.7176  1.9035
  550SOL     OW 1648   0.692   2.603   0.841 -0.4248 -0.0304  0.4896
  550SOL    HW1 1649   0.723   2.517   0.814  0.7196  0.4229  0.3021
  550SOL    HW2 1650   0.616   2.585   0.897 -0.8361 -1.1055 -0.3909
  551SOL     OW 1651   1.639   0.608   0.996 -0.5871 -0.3653  0.6479
  551SOL    HW1 1652   1.667   0.546   0.928 -0.4494 -0.2820  0.6258
  551SOL    HW2 1653   1.551   0.634   0.970 -1.2609 -1.6967  1.4738
  552SOL     OW 1654   0.579   2.552   1.955  0.3688 -0.2541 -0.4972
  552SOL    HW1 1655   0.580   2.637   1.910 -0.0262 -0.0790 -0.1813
  552SOL    HW2 1656   0.638   2.563   2.029  1.5861 -0.7674 -1.3579
  553SOL     OW 1657   2.333   2.921   2.036 -0.6632  0.4040 -0.1289
  553SOL    HW1 1658   2.404   2.858   2.042 -0.8436  0.1010 -1.0788
  553SOL    HW2 1659   2.254   2.870   2.053 -0.7696  0.4690 -0.4235
  554SOL     OW 1660   2.880   0.846   0.619  0.1741 -0.0051 -0.2390
  554SOL    HW1 1661   2.958   0.897   0.642 -0.8797  1.6021 -0.0798
  554SOL    HW2 1662   2.876   0.778   0.686  1.1786  0.1633  0.0125
  555SOL     OW 1663   2.188   2.844   1.733 -0.7143  0.3098  0.1786
  555SOL    HW1 1664   2.136   2.851   1.813  0.6383  1.6238  0.9989
  555SOL    HW2 1665   2.123   2.828   1.664 -2.1121  1.0050  1.2721
  556SOL     OW 1666   2.900   0.779   2.167  0.1599  0.0328 -0.5328
  556SOL    HW1 1667   2.822   0.828   2.141 -1.1023 -1.5725  0.0031
  556SOL    HW2 1668   2.912   0.802   2.259  0.0762 -0.0191 -0.5086
  557SOL     OW 1669   1.367   0.102   0.043 -0.2058  0.1135  0.1009
  557SOL    HW1 1670   1.435   0.103  -0.025  0.8033  0.4575  1.0919
  557SOL    HW2 1671   1.312   0.178   0.022  0.5411  0.6635  0.0875
  558SOL     OW 1672   0.908   2.784   2.781  0.1675 -0.5134  0.6501
  558SOL    HW1 1673   0.971   2.724   2.820 -1.1553 -0.8104  2.4691
  558SOL    HW2 1674   0.961   2.847   2.732  2.1630  0.7947  4.1581
  559SOL     OW 1675   2.447   1.057   0.378  0.1253 -0.6275  0.4120
  559SOL    HW1 1676   2.498   1.076   0.298  0.1027  0.4298  0.6259
  559SOL    HW2 1677   2.475   1.125   0.440 -1.2291 -0.2794  0.6722
  560SOL     OW 1678   0.580   0.856   2.559  0.0760 -0.5022  0.1485
  560SOL    HW1 1679   0.531   0.898   2.630  0.3078 -0.3666  0.2298
  560SOL    HW2 1680   0.512   0.819   2.502 -0.1388  0.1774 -0.0471
  561SOL     OW 1681   0.105   1.399   0.494 -0.2295  0.6271  0.4887
  561SOL    HW1 1682   0.198   1.411   0.473 -0.0261  0.8435  1.4309
  561SOL    HW2 1683   0.099   1.424   0.586 -1.4027  1.5329  0.1835
  562SOL     OW 1684   0.796   2.817   0.728  0.1159  0.9305 -0.1971
  562SOL    HW1 1685   0.750   2.849   0.651 -0.9544  1.2942  0.5666
  562SOL    HW2 1686   0.737   2.750   0.765  0.4754  0.9654  0.4562
  563SOL     OW 1687   1.997   2.093   2.292 -0.7477  0.0837 -0.0150
  563SOL    HW1 1688   2.037   2.066   2.209 -0.5797 -0.2242  0.1656
  563SOL    HW2 1689   2.052   2.052   2.359 -0.6826  0.6055  0.2558
  564SOL     OW 1690   2.548   1.668   0.566  0.5565  0.2303 -0.4600
  564SOL    HW1 1691   2.627   1.617   0.549  1.0107 -0.4559  2.9572
  564SOL    HW2 1692   2.574   1.759   0.556  1.0859 -0.0506 -1.7394
  565SOL     OW 1693   2.974   2.388   0.571 -0.2183 -0.3709  0.5378
  565SOL    HW1 1694   2.990   2.468   0.621 -0.1600 -0.1424  0.1588
  565SOL    HW2 1695   2.941   2.419   0.487 -1.1719 -0.7781  0.7474
  566SOL     OW 1696   0.110   1.172   1.116 -0.4463  0.3617 -0.4951
  566SOL    HW1 1697   0.058   1.156   1.037 -0.9538 -0.0881 -0.0747
  566SOL    HW2 1698   0.045   1.192   1.183  0.0100  1.2267 -0.3019
  567SOL     OW 1699   2.340   1.863   0.226  0.2386 -0.4899 -0.1291
  567SOL    HW1 1700   2.382   1.943   0.258  2.0913 -1.1023 -0.8914
  567SOL    HW2 1701   2.318   1.814   0.305 -2.2093  1.3218  0.4245
  568SOL     OW 1702   1.726   1.613   1.726  0.1689  0.0003  0.1762
  568SOL    HW1 1703   1.801   1.670   1.744  0.4616 -0.0693 -0.7489
  568SOL    HW2 1704   1.669   1.666   1.670  0.6071 -0.6977 -0.9799
  569SOL     OW 1705   0.429   0.174  -0.006  0.0598  0.1189  0.5819
  569SOL    HW1 1706   0.468   0.259   0.013  0.7870  0.0639 -0.5983
  569SOL    HW2 1707   0.372   0.156   0.070  0.3690  1.3596  1.1255
  570SOL     OW 1708   2.127   0.754   1.657  1.0441  0.6901  0.0186
  570SOL    HW1 1709   2.219   0.776   1.671  0.8973  1.3178  0.0192
  570SOL    HW2 1710   2.128   0.687   1.589  1.4795  0.9603 -0.2432
  571SOL     OW 1711   0.283   2.286   1.775 -0.5976  0.1251  0.1209
  571SOL    HW1 1712   0.325   2.358   1.729  0.9372 -1.1253 -0.5080
  571SOL    HW2 1713   0.218   2.252   1.713 -0.2628  0.0093 -0.1676
  572SOL     OW 1714   0.106   0.229   1.587  0.0640 -0.2604  0.2853
  572SOL    HW1 1715   0.023   0.246   1.631 -1.0829 -0.5928 -1.6170
  572SOL    HW2 1716   0.164   0.196   1.656 -1.7780 -1.2568  1.4388
  573SOL     OW 1717   1.629   0.050   2.933 -0.5259  0.0197 -0.1396
  573SOL    HW1 1718   1.664  -0.018   2.875  0.3721 -0.0953  0.5135
  573SOL    HW2 1719   1.702   0.071   2.992 -1.0272  1.0275  0.1387
  574SOL     OW 1720   1.713   1.255   0.524  0.4214  0.3500  0.0275
  574SOL    HW1 1721   1.665   1.249   0.441 -0.0512  1.6896  0.1934
  574SOL    HW2 1722   1.804   1.270   0.498  0.3294  0.4311 -0.2512
  575SOL     OW 1723   2.508   1.569   0.817  0.2725 -0.7031  0.7644
  575SOL    HW1 1724   2.413   1.577   0.824  0.4152  1.4245  0.7334
  575SOL    HW2 1725   2.529   1.607   0.732  1.0405 -2.6873  0.0084
  576SOL     OW 1726   0.117   2.862   0.550  0.0327  0.0243 -0.2784
  576SOL    HW1 1727   0.045   2.868   0.487 -0.6308 -0.1452  0.4484
  576SOL    HW2 1728   0.173   2.937   0.529 -1.5150  1.4816  0.5418
  577SOL     OW 1729   1.139   1.954   1.545  0.1425  0.4992  0.4347
  577SOL    HW1 1730   1.214   1.913   1.501  0.1236  0.2460  0.6389
  577SOL    HW2 1731   1.120   2.031   1.491 -0.7045 -0.5069 -0.7779
  578SOL     OW 1732   1.571   1.836   1.094 -0.3802  0.1742  0.2240
  578SOL    HW1 1733   1.607   1.780   1.026  0.8241  0.4241  0.6371
  578SOL    HW2 1734   1.576   1.784   1.174  3.2724  1.6751  1.1729
  579SOL     OW 1735   0.532   1.319   2.518 -0.0213  0.0604  0.3380
  579SOL    HW1 1736   0.481   1.245   2.551 -0.7600 -0.0425 -0.9334
  579SOL    HW2 1737   0.526   1.385   2.586 -1.6493 -0.0627  0.3658
  580SOL     OW 1738   2.784   2.529   0.939 -0.3488 -0.1388  0.3092
  580SOL    HW1 1739   2.790   2.587   1.015  1.7753  1.6596 -1.0726
  580SOL    HW2 1740   2.735   2.580   0.875 -2.3268 -1.7275  0.4679
  581SOL     OW 1741   0.500   0.628   1.966  0.1079  0.2177  0.3289
  581SOL    HW1 1742   0.412   0.654   1.994 -0.4823 -2.3078  1.0715
  581SOL    HW2 1743   0.549   0.710   1.963 -2.4149  1.8117 -0.7557
  582SOL     OW 1744   0.388   2.314   2.500  0.0929  0.2444 -0.1586
  582SOL    HW1 1745   0.447   2.272   2.563 -2.1304 -0.5893  1.5546
  582SOL    HW2 1746   0.445   2.364   2.442  2.4746 -0.9749  0.9782
  583SOL     OW 1747   1.023   2.010   0.869  0.6343 -0.0160  0.2628
  583SOL    HW1 1748   1.019   1.949   0.795 -1.6949  2.5691 -1.9401
  583SOL    HW2 1749   0.935   2.010   0.905  1.1843  0.4343  1.6951
  584SOL     OW 1750   0.116   2.681   1.878 -0.4473  0.2988 -0.6060
  584SOL    HW1 1751   0.113   2.761   1.929 -0.7757 -0.6225  0.8692
  584SOL    HW2 1752   0.178   2.625   1.924 -1.2930 -0.8212 -0.7967
  585SOL     OW 1753   1.368   1.825   1.447  0.6354  0.1974  0.0337
  585SOL    HW1 1754   1.392   1.878   1.371  0.7828 -1.4277 -1.1043
  585SOL    HW2 1755   1.401   1.738   1.427 -1.7090 -0.9339  0.7227
  586SOL     OW 1756   0.848   2.179   0.054 -0.3212  0.0924  0.1468
  586SOL    HW1 1757   0.857   2.088   0.024 -1.6557 -0.4002  1.0945
  586SOL    HW2 1758   0.885   2.232  -0.016 -1.0510 -1.1171 -1.2068
  587SOL     OW 1759   2.756   1.951   1.185  0.2563  0.1470 -0.2198
  587SOL    HW1 1760   2.665   1.963   1.159 -0.4846 -2.4184  0.8788
  587SOL    HW2 1761   2.804   1.947   1.102 -0.9221 -0.3037 -0.9086
  588SOL     OW 1762   2.039   2.543   1.330 -0.6558 -0.5451  0.5812
  588SOL    HW1 1763   2.022   2.455   1.363  0.4150 -0.6456  0.9057
  588SOL    HW2 1764   1.953   2.586   1.333 -0.9127 -1.0773  1.9268
  589SOL     OW 1765   2.103   2.841   2.191 -0.0749  0.5156 -0.5190
  589SOL    HW1 1766   2.056   2.914   2.231  0.2767  0.5280 -0.1200
  589SOL    HW2 1767   2.115   2.778   2.262 -1.5380 -0.5427 -1.1626
  590SOL     OW 1768   2.985   0.450   2.582  0.0923 -0.6041 -0.6604
  590SOL    HW1 1769   2.893   0.439   2.556 -0.2564 -2.5808  1.1905
  590SOL    HW2 1770   3.031   0.382   2.533  0.2494 -0.9310 -0.0545
  591SOL     OW 1771   2.133   1.949   1.453 -0.1597  0.2443  0.5655
  591SOL    HW1 1772   2.048   1.909   1.431 -0.0747 -0.0630  0.7982
  591SOL    HW2 1773   2.198   1.885   1.425 -0.0105  0.3545  0.6578
  592SOL     OW 1774   2.071   1.720   2.124 -0.1274  0.1997  0.1340
  592SOL    HW1 1775   2.010   1.671   2.068 -1.5745  2.2745 -0.2019
  592SOL    HW2 1776   2.047   1.811   2.111  0.9913  0.8869  2.4508
  593SOL     OW 1777   0.493   1.667   2.516  0.3768  0.0615 -0.2775
  593SOL    HW1 1778   0.506   1.628   2.602 -3.0666 -0.7139  0.0111
  593SOL    HW2 1779   0.482   1.760   2.533 -1.5841 -0.2487  0.3642
  594SOL     OW 1780   2.942   2.176   2.118  0.1267 -0.0232 -0.8661
  594SOL    HW1 1781   3.020   2.165   2.173 -0.5728 -1.7968 -0.1479
  594SOL    HW2 1782   2.905   2.259   2.145  1.5099  0.6394 -0.8974
  595SOL     OW 1783   0.249   2.174   2.278 -0.1516  0.5265 -0.2798
  595SOL    HW1 1784   0.191   2.191   2.352  0.3244  1.5137 -0.1232
  595SOL    HW2 1785   0.329   2.222   2.299 -0.2099  1.2785 -1.6893
  596SOL     OW 1786  -0.012   0.548   2.071  0.0195 -0.2277 -0.3745
  596SOL    HW1 1787   0.083   0.561   2.069  0.2510 -1.4569  1.0293
  596SOL    HW2 1788  -0.046   0.629   2.111  0.4008  0.4420 -1.3684
  597SOL     OW 1789   1.050   2.825   1.822 -0.0622 -0.3923  0.0371
  597SOL    HW1 1790   1.057   2.915   1.792  0.4125 -0.7525 -0.9956
  597SOL    HW2 1791   1.141   2.794   1.828 -0.1427 -0.4512  1.5695
  598SOL     OW 1792   2.576   2.309   1.520  0.4807 -0.2992  0.0529
  598SOL    HW1 1793   2.526   2.386   1.546  1.1010  0.2695 -0.4051
  598SOL    HW2 1794   2.649   2.305   1.582  0.7347 -0.2115 -0.2366
  599SOL     OW 1795   1.024   1.724   0.761  0.1958  0.4464  0.3252
  599SOL    HW1 1796   0.935   1.711   0.793 -0.0060 -0.7892 -0.6610
  599SOL    HW2 1797   1.073   1.754   0.838 -0.2314 -2.4699  1.8640
  600SOL     OW 1798   0.428   1.184   0.417 -0.0941  0.0711  0.2778
  600SOL    HW1 1799   0.360   1.252   0.417 -0.4581 -0.2834  0.9602
  600SOL    HW2 1800   0.489   1.211   0.348 -0.9478  0.3740 -0.3725
  601SOL     OW 1801   1.880   1.058   1.879  0.0779 -0.0881  0.9722
  601SOL    HW1 1802   1.939   1.124   1.843  0.8525 -0.6291  1.2259
  601SOL    HW2 1803   1.861   1.000   1.806  1.3658 -0.9823  1.3264
  602SOL     OW 1804   0.938   1.438   2.243 -0.3234  0.3665 -0.0593
  602SOL    HW1 1805   0.894   1.482   2.171  0.4921  1.1600 -0.0861
  602SOL    HW2 1806   0.874   1.374   2.275 -0.8945  0.3842 -1.1210
  603SOL     OW 1807   2.515   0.135   2.864  0.2568  0.0967  0.4399
  603SOL    HW1 1808   2.442   0.142   2.925 -1.2671 -0.7398 -1.1839
  603SOL    HW2 1809   2.511   0.045   2.832 -1.0694  1.2581 -3.2089
  604SOL     OW 1810   1.993   0.240   1.498  0.0380 -0.4841 -0.2368
  604SOL    HW1 1811   2.066   0.206   1.551  0.1725  1.4504  0.9225
  604SOL    HW2 1812   1.921   0.181   1.516  0.2523 -0.2290  1.7207
  605SOL     OW 1813   0.104   1.970   0.781 -0.1614 -0.2891 -0.0607
  605SOL    HW1 1814   0.074   1.894   0.731  0.3276 -0.1518 -0.5821
  605SOL    HW2 1815   0.067   1.958   0.868  0.3650 -1.4112  0.0240
  606SOL     OW 1816   0.309   2.251   0.213  0.2162  0.1539  0.1129
  606SOL    HW1 1817   0.258   2.219   0.288 -0.4992 -0.0044 -0.4235
  606SOL    HW2 1818   0.319   2.174   0.157  2.2494 -0.1611  0.8295
  607SOL     OW 1819   1.602   0.663   2.888 -0.3612  0.2165  0.3794
  607SOL    HW1 1820   1.594   0.737   2.829 -2.2752 -0.7316 -0.6386
  607SOL    HW2 1821   1.519   0.660   2.936 -0.8062 -1.8991 -0.4222
  608SOL     OW 1822   1.089  -0.003   0.282 -0.0946 -0.2081  0.3300
  608SOL    HW1 1823   1.087   0.068   0.218  0.5890 -0.7671 -0.3350
  608SOL    HW2 1824   1.004  -0.000   0.325  0.0807  1.2931  0.6366
  609SOL     OW 1825   0.545   2.611   1.272 -0.6358 -0.0905  0.1381
  609SOL    HW1 1826   0.512   2.620   1.361 -2.7776  0.6342 -0.6852
  609SOL    HW2 1827   0.560   2.701   1.243 -0.2860 -0.3064 -0.3613
  610SOL     OW 1828   1.243   1.195   2.933 -0.2851 -0.0652 -0.4362
  610SOL    HW1 1829   1.262   1.288   2.923 -0.7482  0.2951  1.6392
  610SOL    HW2 1830   1.242   1.161   2.843 -0.7959  2.0504 -1.2828
  611SOL     OW 1831   1.271   2.654   1.913  0.4221 -0.1346 -0.1074
  611SOL    HW1 1832   1.266   2.676   2.006  1.0396  1.8864 -0.4915
  611SOL    HW2 1833   1.365   2.653   1.893  0.2695  0.8328 -0.9753
  612SOL     OW 1834   2.510   2.958   2.549  0.5174  0.0812  0.0491
  612SOL    HW1 1835   2.419   2.938   2.528  0.3362  0.7302  0.1979
  612SOL    HW2 1836   2.512   3.053   2.563  1.2455  0.0986 -0.1048
  613SOL     OW 1837   0.805   3.000   1.792 -0.4752  0.4766 -0.1551
  613SOL    HW1 1838   0.884   2.999   1.738 -0.5545  0.2006 -0.2655
  613SOL    HW2 1839   0.812   2.921   1.846 -0.3082  0.8402  0.3648
  614SOL     OW 1840   2.253   0.730   0.424  0.9407 -0.1446  0.7588
  614SOL    HW1 1841   2.177   0.686   0.463 -0.0402 -1.1749 -2.0269
  614SOL    HW2 1842   2.329   0.690   0.467 -0.0161 -2.6480  0.2927
  615SOL     OW 1843   1.393   0.427   0.569  0.0564 -0.4021 -0.4219
  615SOL    HW1 1844   1.388   0.334   0.549 -1.3734 -0.6344  0.8444
  615SOL    HW2 1845   1.318   0.444   0.625  0.1539  1.5732 -0.8019
  616SOL     OW 1846   0.689   0.028   0.186  0.1140 -0.9500  0.6234
  616SOL    HW1 1847   0.724  -0.011   0.106  1.7533 -0.9511  1.3134
  616SOL    HW2 1848   0.605  -0.016   0.198  0.4943 -1.9955 -0.3077
  617SOL     OW 1849   0.712   0.311   0.056 -0.4861  0.0405 -0.0032
  617SOL    HW1 1850   0.762   0.284  -0.020  1.2941  1.7840  0.4481
  617SOL    HW2 1851   0.747   0.258   0.128  0.1918  0.7078  0.1701
  618SOL     OW 1852   0.518   1.249   2.970  0.6286  0.0189  0.4475
  618SOL    HW1 1853   0.551   1.325   3.018  1.9114  2.1043 -3.2925
  618SOL    HW2 1854   0.595   1.195   2.954 -0.0057 -1.3196  1.7070
  619SOL     OW 1855   1.329   2.245   2.174 -0.0017  0.1408  0.0034
  619SOL    HW1 1856   1.284   2.326   2.196  1.4085  1.1184 -0.5759
  619SOL    HW2 1857   1.316   2.189   2.250  0.3082  1.4983  1.1024
  620SOL     OW 1858   2.669   0.192   2.307  0.3036 -0.0940 -0.6266
  620SOL    HW1 1859   2.644   0.223   2.219 -0.3834  1.2064 -0.0005
  620SOL    HW2 1860   2.661   0.097   2.302 -1.5987  0.0698 -1.4375
  621SOL     OW 1861   0.178   1.398   0.178 -0.2029  0.1888  0.1040
  621SOL    HW1 1862   0.218   1.335   0.117 -1.7840 -2.5470  1.6837
  621SOL    HW2 1863   0.091   1.362   0.194 -0.2035  1.3299  3.2071
  622SOL     OW 1864   0.231   0.092   2.575  0.5759  0.0790 -0.1093
  622SOL    HW1 1865   0.153   0.118   2.622 -0.8192 -1.9330 -1.1737
  622SOL    HW2 1866   0.221  -0.003   2.561  3.1769 -0.2474 -0.3271
  623SOL     OW 1867   0.667   0.700   1.125  0.8957 -0.9752  0.2431
  623SOL    HW1 1868   0.704   0.675   1.041 -0.1520  2.5050 -1.4560
  623SOL    HW2 1869   0.734   0.755   1.165  0.2031 -0.0498  0.1744
  624SOL     OW 1870   1.875   1.601   2.812 -0.3972 -0.5126 -0.1363
  624SOL    HW1 1871   1.867   1.571   2.722  0.9725 -0.4757 -0.2805
  624SOL    HW2 1872   1.958   1.566   2.843 -1.5102 -1.7961  1.6234
  625SOL     OW 1873   1.543   1.255   0.318  0.3042 -0.2272  0.5509
  625SOL    HW1 1874   1.513   1.339   0.283 -0.6430 -0.1745  1.4596
  625SOL    HW2 1875   1.494   1.190   0.268 -0.6470 -0.1663  1.3856
  626SOL     OW 1876   0.276   2.924   2.268 -0.1154 -0.2184  0.6181
  626SOL    HW1 1877   0.318   2.995   2.220 -0.4286  0.8675  1.8863
  626SOL    HW2 1878   0.346   2.888   2.323  0.0531 -0.9510 -0.0513
  627SOL     OW 1879   2.927   0.104   2.650 -0.1794 -0.2442 -0.2113
  627SOL    HW1 1880   2.879   0.021   2.648  0.7612 -0.8094  0.1483
  627SOL    HW2 1881   2.897   0.146   2.731 -0.7024 -0.1918 -0.4236
  628SOL     OW 1882   2.624   2.662   2.599  0.6410 -0.5440 -0.3934
  628SOL    HW1 1883   2.640   2.568   2.607  1.3308 -0.3190  1.3219
  628SOL    HW2 1884   2.530   2.669   2.582  0.4502 -1.5273  0.1317
  629SOL     OW 1885   1.985   1.789   1.726  0.3546 -0.0997  0.1065
  629SOL    HW1 1886   2.074   1.804   1.692  1.2076 -1.0091  1.7844
  629SOL    HW2 1887   1.994   1.798   1.821 -0.9700 -1.8835  0.4508
  630SOL     OW 1888   0.428   1.414   1.068  0.1468  0.0884  0.7964
  630SOL    HW1 1889   0.413   1.332   1.020 -0.2351  0.4330  0.3133
  630SOL    HW2 1890   0.439   1.386   1.159  1.1541 -0.6023  0.4823
  631SOL     OW 1891   2.036   2.854   2.500  0.0949  0.1385 -0.4288
  631SOL    HW1 1892   2.072   2.905   2.573 -0.0419  2.6989 -2.0191
  631SOL    HW2 1893   1.969   2.911   2.462 -0.2176 -1.3396 -2.2375
  632SOL     OW 1894   1.735   0.042   1.239  0.1301 -0.2717 -0.6480
  632SOL    HW1 1895   1.725   0.112   1.175  1.2401 -1.8962 -2.7067
  632SOL    HW2 1896   1.720  -0.038   1.189  2.0109 -1.6619  0.9023
  633SOL     OW 1897   1.419   1.875   0.059 -0.3258 -0.0949 -0.5083
  633SOL    HW1 1898   1.436   1.951   0.114 -0.0755 -0.3966 -0.1681
  633SOL    HW2 1899   1.328   1.851   0.078  0.3661 -1.4627  1.3544
  634SOL     OW 1900   0.728   0.549   1.414 -0.5963 -0.2436  0.2775
  634SOL    HW1 1901   0.701   0.529   1.324  1.8473 -0.9453 -0.3901
  634SOL    HW2 1902   0.654   0.523   1.468 -1.8304 -0.5541 -1.4656
  635SOL     OW 1903   2.549   2.490   0.718 -0.4118 -0.3851 -0.4505
  635SOL    HW1 1904   2.494   2.492   0.639  2.7715 -0.6162 -2.8833
  635SOL    HW2 1905   2.506   2.426   0.775 -1.7745 -1.8383 -2.9317
  636SOL     OW 1906   1.289   2.268   1.123  0.0363 -0.9694  0.9181
  636SOL    HW1 1907   1.354   2.241   1.059 -1.7371  1.6136 -2.2569
  636SOL    HW2 1908   1.317   2.355   1.151 -1.0508 -0.5859  0.8854
  637SOL     OW 1909   0.853   0.032   0.414  0.5485  0.0309 -0.0167
  637SOL    HW1 1910   0.811   0.039   0.328  1.9311 -0.6615 -0.7996
  637SOL    HW2 1911   0.832   0.114   0.458 -1.1056 -0.0593 -0.5725
  638SOL     OW 1912   1.487   0.250   0.829 -0.4274  0.1079 -0.5372
  638SOL    HW1 1913   1.550   0.240   0.900  2.0787 -2.2960 -2.8721
  638SOL    HW2 1914   1.463   0.160   0.806 -3.5364  0.9042 -0.8695
  639SOL     OW 1915   0.714   2.068   1.512  0.2495 -0.3195  0.0448
  639SOL    HW1 1916   0.620   2.083   1.506 -0.0035 -1.0263  1.6784
  639SOL    HW2 1917   0.753   2.140   1.462 -1.1293  0.6588  0.3089
  640SOL     OW 1918   0.509   0.127   0.397  0.0893  0.4931  0.5463
  640SOL    HW1 1919   0.475   0.190   0.334  1.0746  0.2372 -0.2650
  640SOL    HW2 1920   0.523   0.178   0.476 -1.2497  0.8011  0.6186
  641SOL     OW 1921   1.570   1.266   2.782 -0.1111  1.1597  0.5963
  641SOL    HW1 1922   1.509   1.339   2.791  0.0228  1.2776  0.5626
  641SOL    HW2 1923   1.528   1.194   2.827 -1.5743  0.4223 -1.7644
  642SOL     OW 1924   0.709   1.202   2.062  0.3699 -0.3031 -0.1569
  642SOL    HW1 1925   0.713   1.138   1.991 -0.3379 -0.2209 -0.2831
  642SOL    HW2 1926   0.749   1.281   2.025  0.4242 -0.4000 -0.3078
  643SOL     OW 1927   1.923   0.648   0.061 -0.0619  0.2609  0.1149
  643SOL    HW1 1928   1.881   0.705  -0.002 -0.4738  0.1486  0.2834
  643SOL    HW2 1929   1.855   0.585   0.086 -0.2870  1.0467  1.5848
  644SOL     OW 1930   0.629   1.952   2.255 -0.1557 -0.3974  0.2299
  644SOL    HW1 1931   0.549   1.921   2.213 -0.1813 -0.5886  0.4147
  644SOL    HW2 1932   0.694   1.885   2.235  0.4273  0.6063 -1.3942
  645SOL     OW 1933   2.583   0.780   2.066  0.0300  0.4105 -0.3417
  645SOL    HW1 1934   2.645   0.817   2.003 -0.0646 -0.3962 -0.9233
  645SOL    HW2 1935   2.518   0.849   2.080 -0.5338  0.2346 -1.9355
  646SOL     OW 1936   1.824   2.165   1.925 -0.3813  0.1505 -0.6597
  646SOL    HW1 1937   1.785   2.238   1.877 -1.6451 -0.1705 -0.1456
  646SOL    HW2 1938   1.753   2.130   1.978  0.2715 -1.3113 -0.7191
  647SOL     OW 1939   1.369   1.439   2.841  0.5898  0.5564 -0.3036
  647SOL    HW1 1940   1.312   1.479   2.775  0.4824  1.4022  0.2846
  647SOL    HW2 1941   1.405   1.513   2.889  1.5280 -0.0093 -0.1158
  648SOL     OW 1942   0.980   0.157   2.171 -0.7225 -0.0512 -0.0995
  648SOL    HW1 1943   0.911   0.187   2.111 -0.6860  1.1241  0.4148
  648SOL    HW2 1944   0.963   0.064   2.183 -0.2017 -0.5449 -2.6318
  649SOL     OW 1945   0.578   2.191   2.941 -0.4351  0.2019  0.3229
  649SOL    HW1 1946   0.537   2.264   2.988  0.2351  0.6748  0.1959
  649SOL    HW2 1947   0.665   2.184   2.980  0.0090  0.3814 -0.5966
  650SOL     OW 1948   1.794   3.018   1.513 -0.3798 -0.0184 -0.2899
  650SOL    HW1 1949   1.768   3.030   1.421 -1.3236 -1.1889 -0.1927
  650SOL    HW2 1950   1.765   2.929   1.535  0.4440 -0.0013  0.9449
  651SOL     OW 1951   1.300   1.763   1.857  0.2493  0.2745  0.3221
  651SOL    HW1 1952   1.265   1.681   1.892  1.2585 -0.3460 -0.0993
  651SOL    HW2 1953   1.223   1.811   1.826 -0.1561 -1.7471 -2.0974
  652SOL     OW 1954   1.370   2.224   2.897 -0.5340  0.1095 -0.1948
  652SOL    HW1 1955   1.454   2.212   2.941 -1.2342 -0.4766  1.0668
  652SOL    HW2 1956   1.315   2.153   2.931 -2.1821  1.7131  0.6899
  653SOL     OW 1957   1.515   1.637   2.962  0.1073 -0.2071 -0.6953
  653SOL    HW1 1958   1.490   1.716   3.009  0.3721  0.2588 -1.3168
  653SOL    HW2 1959   1.606   1.621   2.989 -0.6266 -1.6107  1.1726
  654SOL     OW 1960   0.587   0.093   2.392 -0.5519  0.5767  0.4864
  654SOL    HW1 1961   0.540   0.137   2.321  0.3454 -1.2949 -1.3864
  654SOL    HW2 1962   0.596   0.002   2.363  1.4026  0.1284  2.1922
  655SOL     OW 1963   1.796   2.687   0.548  0.3609  0.3195  0.1747
  655SOL    HW1 1964   1.753   2.608   0.581 -1.5787 -0.1378 -3.0710
  655SOL    HW2 1965   1.886   2.659   0.529 -0.3873 -1.2868 -1.2605
  656SOL     OW 1966   0.493   1.570   0.747  0.4456  0.3778  0.4194
  656SOL    HW1 1967   0.458   1.627   0.814  1.4731  1.0055  0.4384
  656SOL    HW2 1968   0.564   1.620   0.706  1.9467 -1.1430  0.9872
  657SOL     OW 1969   1.254   0.509   0.275 -0.5200  0.4620  0.1517
  657SOL    HW1 1970   1.335   0.555   0.250 -0.7553  0.0893 -1.3791
  657SOL    HW2 1971   1.278   0.416   0.274 -1.1196  0.3060 -0.9849
  658SOL     OW 1972   1.391   1.452   0.206 -0.1425 -0.0020  0.5631
  658SOL    HW1 1973   1.418   1.492   0.123  1.8485  1.3371  1.7440
  658SOL    HW2 1974   1.297   1.467   0.211 -0.6121 -1.4976 -2.1143
  659SOL     OW 1975   2.620   2.110   2.015  0.4124  0.5576  0.0155
  659SOL    HW1 1976   2.590   2.197   2.041  2.0073  1.2080 -0.2144
  659SOL    HW2 1977   2.713   2.108   2.039  0.3383 -1.1929  0.2816
  660SOL     OW 1978   2.743   2.583   2.138 -0.5148 -0.3543 -0.5083
  660SOL    HW1 1979   2.787   2.623   2.212 -0.0887 -1.0342 -0.3840
  660SOL    HW2 1980   2.653   2.570   2.167 -0.4139 -0.3741 -0.2067
  661SOL     OW 1981   2.711   2.628   1.313 -0.1710 -0.1540  0.4034
  661SOL    HW1 1982   2.739   2.541   1.285  0.5473  0.0283  0.5310
  661SOL    HW2 1983   2.616   2.628   1.301  0.1152  0.0827 -2.5269
  662SOL     OW 1984   2.888   2.800   0.991 -0.0123 -0.2208 -0.9680
  662SOL    HW1 1985   2.850   2.856   0.923 -0.3268  1.0758  0.2263
  662SOL    HW2 1986   2.969   2.843   1.016 -0.7097  0.2583  0.6181
  663SOL     OW 1987   1.942   0.911   2.715  0.0306 -0.2206 -0.6225
  663SOL    HW1 1988   1.971   0.827   2.681 -1.9127 -0.6835 -1.3041
  663SOL    HW2 1989   1.872   0.889   2.777  2.0502  0.7401  2.1612
  664SOL     OW 1990   2.753   0.447   0.250 -0.5332 -0.5132 -0.3320
  664SOL    HW1 1991   2.682   0.464   0.188 -0.6108  2.0574  0.3650
  664SOL    HW2 1992   2.827   0.497   0.216  0.3680 -1.5609  0.0291
  665SOL     OW 1993   1.722   0.699   1.615 -0.2607 -0.1906 -0.1443
  665SOL    HW1 1994   1.634   0.727   1.639 -0.5302  0.2332 -1.5171
  665SOL    HW2 1995   1.727   0.608   1.645 -1.3676 -0.4003 -0.5290
  666SOL     OW 1996   0.898   2.944   2.317 -0.0346 -0.5363  0.3351
  666SOL    HW1 1997   0.882   3.033   2.349 -1.1886 -0.8011  0.5317
  666SOL    HW2 1998   0.972   2.912   2.369 -0.9089 -0.4114  1.6779
  667SOL     OW 1999   0.793   2.810   2.018 -0.2017  0.5167  0.4130
  667SOL    HW1 2000   0.860   2.761   2.066  0.5817  0.7575 -0.4023
  667SOL    HW2 2001   0.746   2.859   2.086 -0.0582 -0.2476  1.0809
  668SOL     OW 2002   0.479   1.687   1.106 -0.4270  0.1884 -0.7670
  668SOL    HW1 2003   0.446   1.597   1.099  1.3232 -0.4434 -1.3644
  668SOL    HW2 2004   0.476   1.722   1.017  0.5325  0.0965 -0.8456
  669SOL     OW 2005   0.342   1.957   0.265  0.2489 -0.1207  0.1160
  669SOL    HW1 2006   0.359   1.977   0.173 -1.0592  0.3584 -0.0399
  669SOL    HW2 2007   0.389   2.025   0.313  0.4271  0.0012 -0.2258
  670SOL     OW 2008   2.525   0.357   2.705  0.5234  0.7783  0.1051
  670SOL    HW1 2009   2.517   0.280   2.762 -0.4436  1.0410  0.3364
  670SOL    HW2 2010   2.467   0.422   2.744 -1.4942  0.4148 -2.0679
  671SOL     OW 2011   0.248   2.616   0.947  0.4089  0.4797  0.2351
  671SOL    HW1 2012   0.195   2.656   1.016  0.8720 -0.8147  1.3817
  671SOL    HW2 2013   0.186   2.569   0.893  0.1547  0.6859  0.3430
  672SOL     OW 2014   1.472   0.069   1.746 -0.3323 -0.1050 -0.1532
  672SOL    HW1 2015   1.533   0.138   1.772 -0.9793  0.6801 -0.6817
  672SOL    HW2 2016   1.484   0.001   1.813 -0.7669  1.1513  1.2622
  673SOL     OW 2017   0.454   0.862   1.426 -0.4336 -0.2188  0.7138
  673SOL    HW1 2018   0.387   0.899   1.368  0.4308  1.4415  0.7064
  673SOL    HW2 2019   0.457   0.770   1.402 -1.5594  0.0043 -0.4359
  674SOL     OW 2020   0.129   0.586   0.569  0.1294 -0.0340  0.6043
  674SOL    HW1 2021   0.072   0.580   0.645  1.1333 -2.8588  1.2550
  674SOL    HW2 2022   0.199   0.646   0.595  0.6786 -1.2624  2.1455
  675SOL     OW 2023   1.972   1.627   1.499 -0.6110  0.3546 -0.6014
  675SOL    HW1 2024   1.900   1.564   1.495 -0.5134  0.2817 -1.6240
  675SOL    HW2 2025   1.948   1.687   1.569 -0.9479 -0.5271  0.0672
  676SOL     OW 2026   1.997   1.015   1.245  0.0473  0.1929 -1.2491
  676SOL    HW1 2027   2.002   0.953   1.318  0.3831  0.3650 -1.1265
  676SOL    HW2 2028   1.904   1.038   1.240  0.0274  0.2050 -0.8594
  677SOL     OW 2029   2.833   2.273   0.779 -0.1105 -0.0681  0.1834
  677SOL    HW1 2030   2.816   2.365   0.801 -2.2459 -0.3710 -0.0139
  677SOL    HW2 2031   2.880   2.277   0.696 -1.2971  0.8388 -0.4780
  678SOL     OW 2032   1.148   1.530   0.105 -0.2400 -0.0983 -0.4231
  678SOL    HW1 2033   1.106   1.615   0.112  0.5586  0.3662 -1.1645
  678SOL    HW2 2034   1.096   1.482   0.040  1.8937  1.4738 -3.5305
  679SOL     OW 2035   0.484   2.435   0.123  0.0971  0.1725 -0.2781
  679SOL    HW1 2036   0.394   2.403   0.133  0.1966 -0.0445 -0.0499
  679SOL    HW2 2037   0.476   2.530   0.125 -0.2003  0.1620 -0.9414
  680SOL     OW 2038   2.015   2.811   1.949  0.2184 -0.4920  0.1249
  680SOL    HW1 2039   2.043   2.817   2.041  0.1817 -0.5195  0.1383
  680SOL    HW2 2040   1.980   2.722   1.941  1.0363 -0.7931 -0.1540
  681SOL     OW 2041   0.197   2.643   2.424  0.1193 -0.1822 -0.1949
  681SOL    HW1 2042   0.211   2.609   2.335  0.5479 -0.9508  0.1581
  681SOL    HW2 2043   0.270   2.702   2.439  0.7074 -0.9615  0.0770
  682SOL     OW 2044   1.372   1.115   0.146 -0.7339 -0.0924 -0.0399
  682SOL    HW1 2045   1.346   1.151   0.061  0.8232  0.6709 -0.2226
  682SOL    HW2 2046   1.457   1.074   0.130  0.4345  1.5801  1.4704
  683SOL     OW 2047   0.821   1.892   0.008  0.1820  0.2715 -0.7334
  683SOL    HW1 2048   0.828   1.835  -0.069  1.4263  0.4663 -0.7947
  683SOL    HW2 2049   0.869   1.845   0.077 -1.7289 -0.3477  0.2297
  684SOL     OW 2050   2.135   1.197   1.054 -0.3182 -0.0593  0.2444
  684SOL    HW1 2051   2.081   1.269   1.086  1.5111  0.8340  1.5247
  684SOL    HW2 2052   2.106   1.121   1.105 -0.3094  0.4189  0.9726
  685SOL     OW 2053   1.260   2.663   0.074 -0.3633  0.5056  0.4369
  685SOL    HW1 2054   1.211   2.603   0.130 -0.6589  0.9252  0.6343
  685SOL    HW2 2055   1.294   2.729   0.134 -0.1961  0.6379  0.1958
  686SOL     OW 2056   2.073   2.373   0.334 -0.8543 -0.7040 -0.0507
  686SOL    HW1 2057   1.989   2.398   0.295 -1.4450 -2.2759  0.1293
  686SOL    HW2 2058   2.129   2.354   0.259 -0.5133  0.7039 -0.1801
  687SOL     OW 2059   0.041   1.105   2.844 -0.7474  0.5605  0.1467
  687SOL    HW1 2060   0.049   1.056   2.762 -1.7245 -1.1441  1.0101
  687SOL    HW2 2061   0.007   1.191   2.817  1.8926  1.1983 -1.5007
  688SOL     OW 2062   0.180   0.629   1.713 -0.2484 -0.0253 -0.1719
  688SOL    HW1 2063   0.239   0.580   1.771 -0.7057  1.8574  2.0374
  688SOL    HW2 2064   0.098   0.580   1.715 -0.3830  0.1904  1.1772
  689SOL     OW 2065   2.386   0.580   0.805  0.3036  0.4169  0.2201
  689SOL    HW1 2066   2.311   0.521   0.803  1.1899 -0.7337 -0.7048
  689SOL    HW2 2067   2.348   0.668   0.801 -0.9869 -0.1471 -2.3477
  690SOL     OW 2068   2.709   1.733   2.521 -0.9205  0.0171 -0.5622
  690SOL    HW1 2069   2.676   1.720   2.432  0.5210 -0.9992 -0.9928
  690SOL    HW2 2070   2.797   1.769   2.509 -1.2465  1.2472  0.5088
  691SOL     OW 2071   1.593   0.987   0.149 -0.3605  0.1048 -0.2222
  691SOL    HW1 2072   1.618   0.904   0.110  1.6528  0.7799 -0.4813
  691SOL    HW2 2073   1.676   1.026   0.178 -1.2665  1.9315  0.0605
  692SOL     OW 2074   1.740   2.470   1.001  0.1694 -0.1676 -0.4945
  692SOL    HW1 2075   1.651   2.482   0.968  0.1356 -0.4943 -0.5298
  692SOL    HW2 2076   1.780   2.410   0.938  0.1586 -0.6564 -0.0383
  693SOL     OW 2077   0.808   2.500   2.147 -0.3973  0.2507  0.4825
  693SOL    HW1 2078   0.869   2.556   2.100 -1.0792  0.5624 -0.0487
  693SOL    HW2 2079   0.855   2.418   2.159  0.4157  0.7608  0.8017
  694SOL     OW 2080   1.514   2.898   1.967 -0.1352  0.3767 -0.1249
  694SOL    HW1 2081   1.608   2.900   1.982 -0.0867 -2.1814  0.4437
  694SOL    HW2 2082   1.476   2.931   2.049  0.2662  0.1785  0.1434
  695SOL     OW 2083   1.268   1.783   0.988  0.3532 -0.0429  0.5679
  695SOL    HW1 2084   1.214   1.736   1.051  1.2922 -2.1982 -0.1209
  695SOL    HW2 2085   1.306   1.856   1.037  0.2230 -1.0409  2.2115
  696SOL     OW 2086   0.821   0.560   0.473  0.0098  0.2136 -0.1813
  696SOL    HW1 2087   0.905   0.566   0.428 -0.6007 -0.1107 -1.4201
  696SOL    HW2 2088   0.756   0.584   0.406 -0.7598  2.8922  1.3702
  697SOL     OW 2089   2.153   1.407   0.560 -0.1084 -0.1714  0.6133
  697SOL    HW1 2090   2.179   1.499   0.563  4.0849 -1.1697  1.0148
  697SOL    HW2 2091   2.185   1.376   0.475  1.0479 -1.7692  1.5553
  698SOL     OW 2092   2.032   2.004   2.036  0.0169 -0.0819 -0.2816
  698SOL    HW1 2093   2.102   2.054   1.994  0.4582 -1.2746 -1.0282
  698SOL    HW2 2094   1.953   2.056   2.020  0.7480  1.4347  0.8504
  699SOL     OW 2095   1.791   1.867   2.805 -0.5507  0.1550 -0.0472
  699SOL    HW1 2096   1.841   1.920   2.867  0.5236 -0.1950 -0.5831
  699SOL    HW2 2097   1.827   1.779   2.813 -2.6108 -0.6539  1.1477
  700SOL     OW 2098   2.589   0.466   1.408 -0.3359  0.3121 -0.0233
  700SOL    HW1 2099   2.516   0.423   1.453 -0.5324  0.7011  0.0318
  700SOL    HW2 2100   2.666   0.414   1.433 -0.4048  0.6522  0.9624
  701SOL     OW 2101   2.361   1.682   2.117  0.1954  0.1561 -0.4887
  701SOL    HW1 2102   2.268   1.697   2.135  0.5552  1.1404  0.7203
  701SOL    HW2 2103   2.362   1.612   2.052 -1.3879  0.1323 -0.5295
  702SOL     OW 2104   1.030   1.600   1.120 -0.1756 -0.7142  0.3326
  702SOL    HW1 2105   0.953   1.610   1.065 -0.3377 -0.7232  0.5576
  702SOL    HW2 2106   1.027   1.675   1.179  0.8246  0.1466 -0.6687
  703SOL     OW 2107   1.581   1.851   2.643  0.0993  0.8910 -0.0054
  703SOL    HW1 2108   1.492   1.848   2.677  0.6691  0.7679  1.5601
  703SOL    HW2 2109   1.635   1.868   2.720  1.4584  0.7063 -0.8905
  704SOL     OW 2110   0.871   1.420   1.899  0.0636  0.0963  0.0539
  704SOL    HW1 2111   0.838   1.491   1.844  0.6694 -1.0510 -1.9257
  704SOL    HW2 2112   0.860   1.341   1.845 -0.5665 -1.3406  2.1491
  705SOL     OW 2113   0.228   1.868   1.039  0.7010 -0.0977 -0.9050
  705SOL    HW1 2114   0.194   1.820   1.115  0.0953 -2.4411 -2.5213
  705SOL    HW2 2115   0.297   1.924   1.074 -2.1625  1.9754  1.9400
  706SOL     OW 2116   0.323   2.687   0.329 -0.5936  0.9015 -0.0487
  706SOL    HW1 2117   0.314   2.623   0.399  0.4771  0.9937  0.1888
  706SOL    HW2 2118   0.417   2.702   0.321 -0.6579  0.6416 -1.7396
  707SOL     OW 2119   1.776   0.731   1.188  0.2144 -0.0029 -0.2855
  707SOL    HW1 2120   1.717   0.785   1.241  0.5001  0.4062 -0.3727
  707SOL    HW2 2121   1.719   0.687   1.125  0.0149  0.5093 -0.4748
  708SOL     OW 2122   1.875   1.911   1.240 -0.3983 -0.0430 -0.2866
  708SOL    HW1 2123   1.822   1.910   1.319 -1.2688  0.2280 -0.8477
  708SOL    HW2 2124   1.914   1.824   1.236 -0.3247 -0.0462  0.4539
  709SOL     OW 2125   0.581   0.913   1.996 -0.3315 -0.0457 -0.0315
  709SOL    HW1 2126   0.666   0.950   1.971  0.3457 -1.5904 -0.0780
  709SOL    HW2 2127   0.521   0.988   1.993  1.0937  1.1567  0.3996
  710SOL     OW 2128   2.955   1.725   0.991  0.2108  0.1912 -0.0510
  710SOL    HW1 2129   3.022   1.663   0.960  0.2966  0.2594 -0.0013
  710SOL    HW2 2130   2.978   1.742   1.082  0.5155  0.7293 -0.2255
  711SOL     OW 2131   0.404   1.760   0.452  0.5450 -0.7729 -0.4275
  711SOL    HW1 2132   0.363   1.802   0.377 -0.2407 -2.3898 -0.9460
  711SOL    HW2 2133   0.426   1.832   0.511 -2.1274  0.2514 -0.5634
  712SOL     OW 2134   2.800   2.301   1.673  0.5732  0.1245 -0.2678
  712SOL    HW1 2135   2.836   2.213   1.661 -2.8561 -1.5343  0.2202
  712SOL    HW2 2136   2.848   2.337   1.748  0.6835 -2.2326  0.8923
  713SOL     OW 2137   0.449   0.047   1.361  0.5625 -0.8276 -0.3083
  713SOL    HW1 2138   0.539   0.060   1.393  0.1150 -2.3175  1.8079
  713SOL    HW2 2139   0.417   0.135   1.342  1.3703  0.1066  2.2321
  714SOL     OW 2140   1.396   2.802   1.627  0.2711  0.1527 -0.1968
  714SOL    HW1 2141   1.422   2.754   1.705  0.7778 -0.2792 -0.6219
  714SOL    HW2 2142   1.430   2.891   1.642 -1.1997  0.5830  0.8587
  715SOL     OW 2143   0.056   1.766   2.179  0.8926  0.4458  0.1004
  715SOL    HW1 2144   0.033   1.715   2.101 -0.4327 -0.7884  1.2455
  715SOL    HW2 2145   0.142   1.732   2.205  1.1010  0.4938 -0.5133
  716SOL     OW 2146   2.412   1.817   1.275 -0.5989  0.0757  0.2180
  716SOL    HW1 2147   2.414   1.753   1.347  0.9272  2.5288  2.5465
  716SOL    HW2 2148   2.462   1.892   1.308 -0.3975  1.6360 -3.2078
  717SOL     OW 2149   2.889   2.331   2.352  0.7100 -0.1910 -0.2252
  717SOL    HW1 2150   2.965   2.296   2.399  1.1678  0.7870 -0.2053
  717SOL    HW2 2151   2.925   2.400   2.297  0.0007 -0.5422 -1.1573
  718SOL     OW 2152   2.246   0.193   2.500 -0.2159  0.4360  0.1176
  718SOL    HW1 2153   2.307   0.253   2.543  0.0744 -0.7297  1.4282
  718SOL    HW2 2154   2.168   0.246   2.483 -0.2004  1.0478  1.7870
  719SOL     OW 2155   1.781   1.930   0.684 -0.4751  0.0828  0.1382
  719SOL    HW1 2156   1.766   1.920   0.778 -0.9032  1.7433  0.2864
  719SOL    HW2 2157   1.723   2.002   0.658 -0.7762 -0.7036 -1.5197
  720SOL     OW 2158   0.146   2.180   1.561 -0.3702 -0.1204  0.1604
  720SOL    HW1 2159   0.184   2.167   1.474 -0.0783 -0.3182  0.3123
  720SOL    HW2 2160   0.071   2.121   1.564 -0.7043  0.2836 -0.1495
  721SOL     OW 2161   0.483   0.979   2.787  0.2190 -0.3308 -0.3174
  721SOL    HW1 2162   0.551   1.018   2.842  0.2916 -2.1504  0.9730
  721SOL    HW2 2163   0.435   1.053   2.752  1.4403  0.9421  0.6004
  722SOL     OW 2164   0.366   2.793   1.518 -0.0118 -0.5904  0.2989
  722SOL    HW1 2165   0.276   2.797   1.549 -0.1797 -0.3625 -0.2059
  722SOL    HW2 2166   0.367   2.848   1.440  0.4865 -0.8513  0.1153
  723SOL     OW 2167   1.182   0.819   1.848  0.0633  0.5267 -0.4720
  723SOL    HW1 2168   1.199   0.856   1.934  0.1234  0.4268 -0.4412
  723SOL    HW2 2169   1.112   0.756   1.862 -0.4435  1.0484 -0.6258
  724SOL     OW 2170   2.357   2.040   1.937  0.3079  0.8469 -0.3895
  724SOL    HW1 2171   2.439   2.064   1.981 -0.4452  1.0434  0.9705
  724SOL    HW2 2172   2.323   1.967   1.989 -1.8159  2.6372  0.8863
  725SOL     OW 2173   2.281   0.056  -0.004  0.5330  0.3337  0.5113
  725SOL    HW1 2174   2.192   0.029  -0.029  1.2895 -1.6192 -0.3207
  725SOL    HW2 2175   2.279   0.060   0.092 -0.3524 -0.1447  0.5221
  726SOL     OW 2176   0.087   2.187   2.513 -0.6642  0.5267  0.0507
  726SOL    HW1 2177   0.166   2.233   2.542 -1.6573  2.2470  0.1668
  726SOL    HW2 2178   0.036   2.176   2.593 -1.1207  0.6086 -0.2276
  727SOL     OW 2179   1.991   0.730   1.023 -0.0279 -0.1065  0.1703
  727SOL    HW1 2180   1.913   0.722   1.077 -0.6230  1.1997 -0.4423
  727SOL    HW2 2181   2.020   0.821   1.035  2.2927 -0.9562  1.5400
  728SOL     OW 2182   0.503   1.609   2.787 -0.0156  0.1648 -0.4148
  728SOL    HW1 2183   0.411   1.591   2.806  0.0480  0.0869 -0.1778
  728SOL    HW2 2184   0.524   1.688   2.837  0.5582 -0.8697  1.0809
  729SOL     OW 2185   2.505   0.162   0.826  0.4442 -0.2494  0.1880
  729SOL    HW1 2186   2.568   0.232   0.807 -0.1584 -0.1235 -1.5023
  729SOL    HW2 2187   2.421   0.207   0.834  0.2501 -0.6443  0.3999
  730SOL     OW 2188   0.731   0.852   0.033 -0.0160  0.2077  0.8227
  730SOL    HW1 2189   0.815   0.858   0.078  0.9061 -1.4065 -0.5585
  730SOL    HW2 2190   0.727   0.761   0.001  0.2167  1.5565 -3.7353
  731SOL     OW 2191   0.169   0.312   2.419 -0.1225  0.9508  0.0350
  731SOL    HW1 2192   0.105   0.266   2.364 -0.3979  0.8014  0.4731
  731SOL    HW2 2193   0.215   0.242   2.465 -0.6293  1.1183  0.8017
  732SOL     OW 2194   0.733   1.209   2.349  0.3696 -0.4224  0.1298
  732SOL    HW1 2195   0.664   1.225   2.414  0.0276 -3.0382  0.5556
  732SOL    HW2 2196   0.687   1.210   2.265  0.0059 -0.9590  0.3123
  733SOL     OW 2197   1.194   2.510   0.455  0.3888  0.1570 -0.2672
  733SOL    HW1 2198   1.142   2.589   0.443  0.2709  0.0994 -0.1465
  733SOL    HW2 2199   1.281   2.534   0.425  0.5284  0.5510  0.4238
  734SOL     OW 2200   2.337   2.646   0.457 -0.1962 -0.0626 -0.1852
  734SOL    HW1 2201   2.357   2.739   0.464  0.6167 -0.2990  0.8988
  734SOL    HW2 2202   2.337   2.628   0.363 -2.7731  1.5171 -0.5768
  735SOL     OW 2203   1.192   1.060   1.720 -0.3296 -0.0773  0.2325
  735SOL    HW1 2204   1.185   0.986   1.780  0.6146 -0.8834 -0.6316
  735SOL    HW2 2205   1.142   1.033   1.643 -1.5907  0.9780  0.6276
  736SOL     OW 2206   0.059   1.696   1.262  0.3860  0.3036  0.3142
  736SOL    HW1 2207   0.144   1.706   1.304 -0.0417 -0.0063  1.2741
  736SOL    HW2 2208   0.001   1.755   1.310  0.1229  0.7799 -0.5605
  737SOL     OW 2209   0.568   2.523   0.476 -0.1767 -0.8159 -0.6096
  737SOL    HW1 2210   0.475   2.535   0.495 -0.1884 -1.9211  0.1407
  737SOL    HW2 2211   0.588   2.589   0.410 -1.5982 -0.8517 -1.1004
  738SOL     OW 2212   0.578   2.147   2.643  0.1454 -0.1041  0.2444
  738SOL    HW1 2213   0.652   2.122   2.587 -0.7230 -2.0957 -0.1067
  738SOL    HW2 2214   0.617   2.167   2.728  1.1750 -0.1620 -0.2021
  739SOL     OW 2215   0.920   2.503   0.348 -0.5816 -0.7217  0.0260
  739SOL    HW1 2216   0.994   2.475   0.402 -0.9345  0.5098  1.1730
  739SOL    HW2 2217   0.914   2.597   0.361 -0.4948 -0.3020 -2.4285
  740SOL     OW 2218   1.995   2.804   1.195  0.2538  0.7634  0.0964
  740SOL    HW1 2219   1.993   2.708   1.184  1.6427  0.8476 -1.2433
  740SOL    HW2 2220   1.907   2.832   1.171  0.3942 -0.0260 -1.4763
  741SOL     OW 2221   0.842   1.239   1.679 -0.1571 -0.5873 -0.2634
  741SOL    HW1 2222   0.851   1.149   1.710  1.8780  0.0389  1.1163
  741SOL    HW2 2223   0.855   1.232   1.584  2.4152 -1.5064  0.0759
  742SOL     OW 2224   1.484   0.933   2.883 -0.3512 -0.6949  0.1821
  742SOL    HW1 2225   1.497   0.959   2.792 -0.3464  0.5013  0.5048
  742SOL    HW2 2226   1.393   0.906   2.887 -0.2811 -1.0038 -0.2350
  743SOL     OW 2227   2.923   2.485   0.328 -0.0785 -0.6459  0.5646
  743SOL    HW1 2228   2.940   2.402   0.283 -2.3823 -1.2818  0.7510
  743SOL    HW2 2229   2.838   2.514   0.295  0.9937  2.0557 -0.0300
  744SOL     OW 2230   0.827   1.017   1.899  0.7549 -0.4724 -0.3432
  744SOL    HW1 2231   0.896   1.084   1.898 -0.4273  0.7688 -0.1530
  744SOL    HW2 2232   0.861   0.948   1.841  2.4578 -0.2133  0.2764
  745SOL     OW 2233   2.289   0.274   2.208  0.7597  0.2864 -0.3622
  745SOL    HW1 2234   2.300   0.362   2.244  1.8172 -0.1737  0.5279
  745SOL    HW2 2235   2.290   0.217   2.285 -0.6277 -0.4594 -0.8658
  746SOL     OW 2236   2.798   2.625   0.658  0.1940  0.0651  0.0388
  746SOL    HW1 2237   2.755   2.710   0.655 -1.4653 -0.7475 -0.5508
  746SOL    HW2 2238   2.727   2.562   0.645  1.3572 -1.4198  0.5818
  747SOL     OW 2239   1.704   0.846   2.280  0.0732 -0.0878  0.1256
  747SOL    HW1 2240   1.625   0.881   2.236  0.4556  0.9479  0.2284
  747SOL    HW2 2241   1.762   0.823   2.208 -0.0270 -0.1382  0.0593
  748SOL     OW 2242   2.765   2.425   2.911 -0.3347 -0.3452  0.2867
  748SOL    HW1 2243   2.732   2.427   3.000  0.1522  0.6977  0.4537
  748SOL    HW2 2244   2.693   2.458   2.858  0.2112  1.4611  0.5972
  749SOL     OW 2245   1.599   2.286   2.507 -0.1980  0.1739 -0.0430
  749SOL    HW1 2246   1.506   2.263   2.509 -0.2943  0.5514 -0.1506
  749SOL    HW2 2247   1.633   2.244   2.427 -0.9333  2.5019 -1.6684
  750SOL     OW 2248   2.980   0.574   0.159 -0.7146  0.0740  0.3129
  750SOL    HW1 2249   2.934   0.621   0.090  2.0887  1.2906 -0.9163
  750SOL    HW2 2250   3.022   0.500   0.114 -0.2603 -0.1324  1.0495
  751SOL     OW 2251   0.975   2.320   1.168  0.0583 -0.5675 -0.0127
  751SOL    HW1 2252   0.918   2.264   1.220  1.9667 -2.8134 -0.1550
  751SOL    HW2 2253   1.063   2.305   1.203  1.0974 -0.3134 -2.2853
  752SOL     OW 2254   2.007   2.576   1.036  0.0534  0.0061 -0.0389
  752SOL    HW1 2255   1.912   2.569   1.048  0.1365  1.2488  1.9396
  752SOL    HW2 2256   2.039   2.487   1.052 -0.7315 -0.3661 -0.4267
  753SOL     OW 2257   2.510   2.679   3.002  0.4227  0.7357 -0.0894
  753SOL    HW1 2258   2.503   2.759   2.949  0.5219  0.5183 -0.4387
  753SOL    HW2 2259   2.470   2.611   2.948 -0.0542  0.6305  0.3913
  754SOL     OW 2260   0.042   2.393   0.954  0.1314 -0.2765 -0.1013
  754SOL    HW1 2261   0.071   2.383   0.863  0.3724 -0.7910  0.0257
  754SOL    HW2 2262  -0.053   2.400   0.948  0.1800  0.1645 -0.4277
  755SOL     OW 2263   2.734   1.351   2.929  0.5696 -0.1263  0.4548
  755SOL    HW1 2264   2.758   1.259   2.916  2.7262  0.2338  1.4439
  755SOL    HW2 2265   2.686   1.352   3.012 -0.7633 -0.5011 -0.2694
  756SOL     OW 2266   0.189   2.710   1.197 -0.1636 -0.0456 -0.1367
  756SOL    HW1 2267   0.145   2.772   1.255  0.0504 -0.7232  0.7678
  756SOL    HW2 2268   0.279   2.743   1.190 -0.5804  0.9036 -1.3601
  757SOL     OW 2269   1.435   0.458   1.745  0.0471 -0.4492  0.0445
  757SOL    HW1 2270   1.431   0.546   1.706 -0.0325 -0.8756 -0.9373
  757SOL    HW2 2271   1.522   0.453   1.784 -0.9839  1.1613  2.8349
  758SOL     OW 2272   0.316   2.511   1.947  0.1426 -0.2170 -0.3831
  758SOL    HW1 2273   0.279   2.443   1.889 -0.9807 -1.5231  1.7438
  758SOL    HW2 2274   0.409   2.488   1.953  0.1589 -0.4147 -1.1924
  759SOL     OW 2275   0.609   1.652   0.183  0.0859  0.0930 -0.4734
  759SOL    HW1 2276   0.601   1.745   0.202 -0.3085 -0.3315  1.7072
  759SOL    HW2 2277   0.522   1.626   0.152 -0.1307  0.2262  0.0165
  760SOL     OW 2278   2.042   0.614   0.683 -0.1759 -0.3460 -0.4372
  760SOL    HW1 2279   1.955   0.650   0.666 -0.4417  0.2357  1.8023
  760SOL    HW2 2280   2.025   0.534   0.733  0.5539 -0.9257 -1.0984
  761SOL     OW 2281   1.343   1.965   1.199  0.4064  0.1738 -0.1228
  761SOL    HW1 2282   1.367   2.056   1.213  0.2085  0.0709  0.9943
  761SOL    HW2 2283   1.412   1.929   1.144 -0.2938  1.3718 -1.8670
  762SOL     OW 2284   0.544   2.749   1.763 -0.2060 -0.1320  0.4328
  762SOL    HW1 2285   0.512   2.825   1.811 -1.7426 -0.8289  0.5798
  762SOL    HW2 2286   0.546   2.777   1.672  1.1433  0.6830  0.6914
  763SOL     OW 2287   1.497   1.054   1.657 -0.3644 -0.2485  0.7466
  763SOL    HW1 2288   1.533   1.117   1.595 -0.0213 -2.5759 -1.5572
  763SOL    HW2 2289   1.402   1.068   1.654 -0.1878  1.7591  2.2048
  764SOL     OW 2290   0.158   1.124   1.525  0.2100 -0.1691 -0.0515
  764SOL    HW1 2291   0.186   1.074   1.449  0.3409 -0.4810  0.1964
  764SOL    HW2 2292   0.174   1.065   1.599 -1.5482 -0.5416  0.0662
  765SOL     OW 2293   1.208   2.465   2.246 -0.0265  0.3776  0.3774
  765SOL    HW1 2294   1.189   2.473   2.339 -0.9686 -0.2484  0.2564
  765SOL    HW2 2295   1.151   2.529   2.205 -0.1225  0.1735  0.1875
  766SOL     OW 2296   2.473   0.594   0.548  0.1589  0.3178  0.1303
  766SOL    HW1 2297   2.542   0.528   0.550  0.3756  0.5518  0.6060
  766SOL    HW2 2298   2.426   0.582   0.631 -0.3341  0.2032 -0.1590
  767SOL     OW 2299   2.220   0.794   2.384  0.0915 -0.0204 -0.6544
  767SOL    HW1 2300   2.284   0.812   2.453 -0.0771 -2.0879  0.0997
  767SOL    HW2 2301   2.142   0.765   2.431 -0.0790 -1.3287 -1.7011
  768SOL     OW 2302   0.690   1.028   1.342 -0.2699 -0.2555  0.3687
  768SOL    HW1 2303   0.678   1.002   1.251 -2.9136  0.0363  0.5590
  768SOL    HW2 2304   0.613   0.993   1.387 -0.3688  1.8615  1.9696
  769SOL     OW 2305   2.490   2.330   0.267 -0.3176  0.0615  0.4375
  769SOL    HW1 2306   2.484   2.355   0.359 -1.3469 -1.4878  0.8214
  769SOL    HW2 2307   2.504   2.236   0.268  0.0663  0.0734 -1.0029
  770SOL     OW 2308   1.786   1.572   2.356 -0.3615 -0.4199 -0.0301
  770SOL    HW1 2309   1.768   1.544   2.445  0.1673 -0.1318  0.1743
  770SOL    HW2 2310   1.879   1.596   2.357 -0.0602 -1.4490 -0.9242
  771SOL     OW 2311   1.059   1.945   2.100  0.4601  0.3843 -0.0775
  771SOL    HW1 2312   1.063   1.874   2.036 -2.1156 -0.3293  0.4360
  771SOL    HW2 2313   1.073   2.025   2.048  2.8159 -0.3811 -0.7472
  772SOL     OW 2314   2.450   0.927   0.826  0.5084  0.2342  0.5879
  772SOL    HW1 2315   2.358   0.901   0.817  0.2803  0.1830  2.6283
  772SOL    HW2 2316   2.487   0.914   0.739 -1.5875  0.9940 -0.4900
  773SOL     OW 2317   1.818   2.378   0.208  0.7439  0.4915  0.4885
  773SOL    HW1 2318   1.775   2.348   0.128  0.0203  0.4723  0.8739
  773SOL    HW2 2319   1.826   2.473   0.196  0.8673  0.4575  0.2904
  774SOL     OW 2320   2.282   2.491   2.331  0.1279  0.2815  0.3766
  774SOL    HW1 2321   2.262   2.482   2.237  0.9768  0.0090  0.2089
  774SOL    HW2 2322   2.199   2.516   2.371 -0.6717 -1.2774 -0.1977
  775SOL     OW 2323   1.062   0.575   0.825  0.4147  0.3557  0.6331
  775SOL    HW1 2324   1.109   0.492   0.835 -2.2546 -1.2868  0.3988
  775SOL    HW2 2325   1.054   0.587   0.731  2.2763  1.8477  0.6157
  776SOL     OW 2326   1.479   1.199   0.628  0.5598  0.2057 -0.2293
  776SOL    HW1 2327   1.571   1.219   0.612  0.6519 -0.1550 -0.1518
  776SOL    HW2 2328   1.454   1.140   0.557  0.2270  0.7671 -0.5845
  777SOL     OW 2329   1.073   0.448   3.017 -0.2958  1.0844 -0.0781
  777SOL    HW1 2330   1.169   0.451   3.026 -0.1356 -0.3209 -1.0297
  777SOL    HW2 2331   1.056   0.488   2.932 -0.4760  0.5635 -0.2871
  778SOL     OW 2332   1.553   1.671   0.806 -0.3298 -0.0901 -0.2684
  778SOL    HW1 2333   1.564   1.612   0.731 -0.4240 -0.7046  0.1969
  778SOL    HW2 2334   1.510   1.617   0.873  1.2174 -0.0185  0.8167
  779SOL     OW 2335   2.640   0.375   0.483 -0.0404 -0.2438 -0.5107
  779SOL    HW1 2336   2.714   0.329   0.524  0.1050 -0.1781 -0.6970
  779SOL    HW2 2337   2.671   0.397   0.396 -0.2652 -0.1718 -0.5733
  780SOL     OW 2338   1.377   0.151   0.527 -0.5281 -0.1733  0.2463
  780SOL    HW1 2339   1.295   0.119   0.565 -0.0708 -0.5336  0.9566
  780SOL    HW2 2340   1.445   0.098   0.569 -0.0512 -1.4597 -2.0153
  781SOL     OW 2341   1.780   2.398   2.714 -0.0761 -0.2840  0.2035
  781SOL    HW1 2342   1.698   2.372   2.673 -0.3273 -0.2294  0.6614
  781SOL    HW2 2343   1.769   2.491   2.733  0.8582  0.2199 -1.5251
  782SOL     OW 2344   0.451   1.900   2.665  0.0697  0.0164 -0.4281
  782SOL    HW1 2345   0.499   1.856   2.735 -0.4180 -1.2053 -0.8515
  782SOL    HW2 2346   0.489   1.988   2.663  0.2494  0.0167  1.2118
  783SOL     OW 2347   2.918   0.899   1.738 -0.0079 -0.2745  0.3877
  783SOL    HW1 2348   2.930   0.921   1.645 -3.0754 -2.7848 -0.8053
  783SOL    HW2 2349   2.988   0.836   1.756  0.9765  0.6740 -0.0226
  784SOL     OW 2350   2.453   1.913   2.782 -0.3657  0.5474 -0.9061
  784SOL    HW1 2351   2.541   1.946   2.762 -0.3221  0.7757 -0.3565
  784SOL    HW2 2352   2.467   1.822   2.810 -0.2795  0.6445 -0.6289
  785SOL     OW 2353   0.142   1.463   2.319 -0.2962  0.3317 -0.3501
  785SOL    HW1 2354   0.182   1.540   2.281 -0.4341  0.3890 -0.3805
  785SOL    HW2 2355   0.148   1.396   2.251 -1.6349  0.7773 -0.9405
  786SOL     OW 2356   0.790   1.903   0.480  0.2217  0.4499  0.0021
  786SOL    HW1 2357   0.788   1.982   0.426  1.5027  0.2474 -0.3904
  786SOL    HW2 2358   0.761   1.932   0.567 -0.4026  1.1025 -0.4193
  787SOL     OW 2359   0.096   1.378   1.510 -0.0118 -0.1394 -0.4027
  787SOL    HW1 2360   0.001   1.379   1.498 -0.0745 -1.1526 -0.0667
  787SOL    HW2 2361   0.120   1.286   1.508  0.7077 -0.0408  1.4852
  788SOL     OW 2362   2.424   0.707   2.717  0.1168 -0.3038  0.5517
  788SOL    HW1 2363   2.353   0.771   2.714  1.7269  1.6071  0.8030
  788SOL    HW2 2364   2.457   0.712   2.807  1.9334  0.5093 -0.1032
  789SOL     OW 2365   0.244   1.603   2.873 -0.1274 -0.3996 -0.6977
  789SOL    HW1 2366   0.177   1.621   2.940 -0.2098  0.3712 -0.9765
  789SOL    HW2 2367   0.205   1.635   2.792 -0.1335 -1.5574 -1.1725
  790SOL     OW 2368   2.483   2.450   2.868  0.2159 -0.2075  0.0111
  790SOL    HW1 2369   2.496   2.358   2.890  0.3264 -0.1496  0.1881
  790SOL    HW2 2370   2.451   2.448   2.778  1.8124 -0.3395 -0.5842
  791SOL     OW 2371   2.110   2.835   0.229  0.0612 -0.2759  0.7239
  791SOL    HW1 2372   2.171   2.764   0.216 -0.4839 -0.5316 -0.5547
  791SOL    HW2 2373   2.165   2.911   0.250  0.6069 -1.1901  2.8783
  792SOL     OW 2374   1.199   1.329   1.735  0.5245 -0.3236 -0.1424
  792SOL    HW1 2375   1.194   1.234   1.734  1.9858 -0.4374  0.1102
  792SOL    HW2 2376   1.135   1.358   1.670  1.5440 -1.5939 -1.8103
  793SOL     OW 2377   0.523   1.693   1.824  0.1906  0.4260 -0.1814
  793SOL    HW1 2378   0.589   1.627   1.801  0.6494  1.0122 -0.5914
  793SOL    HW2 2379   0.531   1.702   1.919 -1.9892 -2.3044  0.3928
  794SOL     OW 2380   1.751   1.582   0.140 -0.4031 -0.4694 -0.5317
  794SOL    HW1 2381   1.777   1.491   0.153  0.0499 -0.3150 -0.3309
  794SOL    HW2 2382   1.834   1.630   0.137 -0.6821  0.4084  2.7284
  795SOL     OW 2383   0.835   0.564   0.955 -0.0485  0.5090  0.1936
  795SOL    HW1 2384   0.925   0.586   0.929  0.0186  1.3185  1.0792
  795SOL    HW2 2385   0.791   0.544   0.872  0.9359  0.1133 -0.2538
  796SOL     OW 2386   2.280   1.900   1.699 -0.3246  0.2034 -0.4478
  796SOL    HW1 2387   2.325   1.949   1.768  1.6311 -0.3049 -1.2729
  796SOL    HW2 2388   2.331   1.918   1.620 -1.8391 -0.1247 -1.5399
  797SOL     OW 2389   2.760   2.714   1.892 -0.1458 -0.6549  0.0769
  797SOL    HW1 2390   2.800   2.671   1.817  0.8692  0.3822 -0.0117
  797SOL    HW2 2391   2.783   2.659   1.966  0.4915 -0.6894 -0.1333
  798SOL     OW 2392   0.689   2.326   1.772 -0.3029  0.0825  0.4698
  798SOL    HW1 2393   0.652   2.396   1.825 -0.2509  0.9346 -0.5701
  798SOL    HW2 2394   0.621   2.259   1.769  0.6155 -1.1811  3.6524
  799SOL     OW 2395   1.804   0.947   1.487  0.2406 -0.0489  0.0232
  799SOL    HW1 2396   1.781   0.868   1.537  1.0952  0.4900  1.3018
  799SOL    HW2 2397   1.720   0.989   1.470 -0.2168 -1.1132 -0.4988
  800SOL     OW 2398   2.558   1.468   2.239  0.2554 -0.4036  0.0523
  800SOL    HW1 2399   2.508   1.544   2.208 -1.6647 -2.3810 -2.1334
  800SOL    HW2 2400   2.504   1.430   2.308  0.1599 -0.8930 -0.2841
  801SOL     OW 2401   1.102   0.864   0.557  0.0602  0.0826  0.5883
  801SOL    HW1 2402   1.025   0.892   0.507  0.3940 -2.2155 -1.4644
  801SOL    HW2 2403   1.080   0.881   0.648 -2.5774  0.2332 -0.0004
  802SOL     OW 2404   2.699   2.346   1.283  0.3676 -0.2224 -0.0084
  802SOL    HW1 2405   2.772   2.283   1.286  1.4205  1.0136  1.5325
  802SOL    HW2 2406   2.650   2.330   1.364 -0.8651 -0.7377 -0.8225
  803SOL     OW 2407   0.457   0.536   0.541  0.6268  0.0844  0.0403
  803SOL    HW1 2408   0.530   0.551   0.481 -0.0342 -1.8567 -1.3670
  803SOL    HW2 2409   0.409   0.619   0.543  0.6274  0.1876 -2.2294
  804SOL     OW 2410   1.336   2.889   0.247  0.6372 -0.2061  0.3828
  804SOL    HW1 2411   1.375   2.937   0.174  0.8545 -0.4913  0.3096
  804SOL    HW2 2412   1.248   2.926   0.256  0.7142  0.0320  0.1668
  805SOL     OW 2413   1.830   1.338   0.160  0.8090  0.1776  0.3698
  805SOL    HW1 2414   1.804   1.316   0.071  2.4529  0.7890 -0.2971
  805SOL    HW2 2415   1.820   1.256   0.209  0.1298 -0.2248 -0.4190
  806SOL     OW 2416   2.706   0.564   0.825  0.0034 -0.1050  0.4105
  806SOL    HW1 2417   2.627   0.582   0.773  0.5266  1.1343 -0.0116
  806SOL    HW2 2418   2.673   0.550   0.914 -0.7668 -0.5359  0.0696
  807SOL     OW 2419   1.794   1.189   2.905  0.1521 -0.4653 -0.2284
  807SOL    HW1 2420   1.707   1.209   2.872  0.4713  1.1904 -0.1455
  807SOL    HW2 2421   1.853   1.236   2.845  0.9676 -1.2809 -0.0825
  808SOL     OW 2422   1.563   2.552   0.103  0.0967 -0.4306 -0.3827
  808SOL    HW1 2423   1.599   2.464   0.097  1.5448  0.1465 -0.5283
  808SOL    HW2 2424   1.528   2.569   0.015  0.7883 -0.4611 -0.6681
  809SOL     OW 2425   0.105   2.437   1.237 -0.3617 -0.1757 -0.1366
  809SOL    HW1 2426   0.150   2.522   1.244 -4.4991  2.1301  2.4123
  809SOL    HW2 2427   0.083   2.430   1.144 -2.6397  3.3167 -0.0499
  810SOL     OW 2428   0.150   0.658   1.407  0.3622  0.1152 -0.4846
  810SOL    HW1 2429   0.155   0.615   1.493  0.1660  1.7788  0.4044
  810SOL    HW2 2430   0.231   0.632   1.363  1.6908  1.1748  1.1901
  811SOL     OW 2431   0.350   2.973   0.927  0.1249 -0.1687 -0.0209
  811SOL    HW1 2432   0.413   3.045   0.921  0.4418 -0.5016 -1.0132
  811SOL    HW2 2433   0.350   2.934   0.839 -0.4556 -1.0316  0.3440
  812SOL     OW 2434   0.398   0.215   2.245 -0.0504 -0.2827 -0.6983
  812SOL    HW1 2435   0.363   0.280   2.307 -0.9233 -2.8941  1.7351
  812SOL    HW2 2436   0.339   0.221   2.170 -2.7577 -1.0092  1.2058
  813SOL     OW 2437   2.839   1.608   2.874  0.0310 -0.8682 -0.3731
  813SOL    HW1 2438   2.817   1.518   2.897  0.2384 -0.8898 -0.2588
  813SOL    HW2 2439   2.927   1.622   2.911 -0.9254  0.1419  1.6912
  814SOL     OW 2440   2.468   2.939   0.685  0.2359  0.1769 -0.3880
  814SOL    HW1 2441   2.390   2.895   0.719  0.1985 -0.6892 -1.5470
  814SOL    HW2 2442   2.482   3.012   0.746  0.2925 -1.3794  1.5703
  815SOL     OW 2443   1.548   0.363   1.283  0.0126  0.0255  0.1784
  815SOL    HW1 2444   1.592   0.349   1.366  2.1896 -0.1231 -0.9256
  815SOL    HW2 2445   1.462   0.399   1.306  0.9182  0.8663  2.4212
  816SOL     OW 2446   0.448   0.275   2.686 -0.4396 -0.1913 -0.5368
  816SOL    HW1 2447   0.389   0.223   2.632  0.2122 -0.1712 -1.2912
  816SOL    HW2 2448   0.466   0.220   2.762 -0.8690 -0.4847 -0.6423
  817SOL     OW 2449   1.419   1.394   0.841  0.6003  0.0297  0.6212
  817SOL    HW1 2450   1.337   1.443   0.844  1.0241  0.7563  0.5873
  817SOL    HW2 2451   1.411   1.339   0.763 -0.3284 -0.7649  1.2681
  818SOL     OW 2452   2.676   0.193   2.053 -0.2482 -0.0468 -0.0005
  818SOL    HW1 2453   2.693   0.099   2.061  0.2975  0.0320 -0.1794
  818SOL    HW2 2454   2.623   0.201   1.974 -0.9315 -0.2762  0.4294
  819SOL     OW 2455   1.081   1.597   2.707 -0.0013  0.5599 -0.9709
  819SOL    HW1 2456   1.050   1.522   2.757  1.4544  0.3139 -0.3864
  819SOL    HW2 2457   1.064   1.575   2.616 -0.4733 -0.0429 -0.7404
  820SOL     OW 2458   1.737   0.533   0.242 -0.4546  0.1361  0.4327
  820SOL    HW1 2459   1.731   0.439   0.225  1.7798  0.1025 -0.5743
  820SOL    HW2 2460   1.795   0.541   0.317 -0.1740  0.7144  0.1665
  821SOL     OW 2461   2.037   1.697   1.241 -0.2476  0.2973 -0.5317
  821SOL    HW1 2462   2.121   1.668   1.204  0.1520  0.1352  0.4617
  821SOL    HW2 2463   2.029   1.648   1.323 -0.7945  1.1110 -0.0849
  822SOL     OW 2464   2.591   1.058   1.671  0.0599  0.0599 -0.0017
  822SOL    HW1 2465   2.516   1.116   1.682  0.7245  0.9862 -0.2709
  822SOL    HW2 2466   2.567   1.003   1.596  0.0453  1.0171 -0.7269
  823SOL     OW 2467   0.698   2.252   1.067 -0.4629  0.2164 -0.1217
  823SOL    HW1 2468   0.606   2.276   1.057 -0.8525 -0.8127  0.8157
  823SOL    HW2 2469   0.727   2.300   1.145 -0.3487  0.1258 -0.1080
  824SOL     OW 2470   0.160   0.779   2.914  0.1349  0.5435 -0.0540
  824SOL    HW1 2471   0.214   0.725   2.857 -0.5867  0.4568 -0.6703
  824SOL    HW2 2472   0.074   0.781   2.872 -0.5253  0.1763  1.2251
  825SOL     OW 2473   0.190   0.656   2.618  1.0650  0.3223  0.7644
  825SOL    HW1 2474   0.117   0.597   2.597  0.7513  1.1759 -0.6500
  825SOL    HW2 2475   0.268   0.602   2.604  0.7652  0.0550  0.0650
  826SOL     OW 2476   2.767   0.294   2.954  0.6491  0.4404  0.7802
  826SOL    HW1 2477   2.683   0.248   2.949  0.8762  0.0874  0.1670
  826SOL    HW2 2478   2.801   0.272   3.041  0.9798 -0.9589  0.3151
  827SOL     OW 2479   0.468   0.227   0.859  0.2706  0.2382  0.2344
  827SOL    HW1 2480   0.412   0.275   0.920  0.6564  0.1260  0.6813
  827SOL    HW2 2481   0.423   0.235   0.775 -0.9320 -0.6796  0.7603
  828SOL     OW 2482   2.451   0.250   1.174  0.2377 -0.2197 -0.1484
  828SOL    HW1 2483   2.449   0.226   1.266  1.2505 -1.7787 -0.4859
  828SOL    HW2 2484   2.480   0.170   1.129 -0.8543  0.2925 -1.8843
  829SOL     OW 2485   2.561   2.727   0.904  0.0468  0.4458  0.3900
  829SOL    HW1 2486   2.470   2.747   0.925  0.2184  2.1595 -0.2760
  829SOL    HW2 2487   2.557   2.651   0.846 -1.0890  1.2374 -0.6279
  830SOL     OW 2488   0.673   2.615   2.502 -0.3281  0.0318  0.3048
  830SOL    HW1 2489   0.707   2.642   2.587 -0.3572  1.4129 -0.0922
  830SOL    HW2 2490   0.706   2.526   2.490  2.5966  0.9959  0.2861
  831SOL     OW 2491   2.529   1.837   2.293  0.4550 -0.3286  0.4196
  831SOL    HW1 2492   2.454   1.821   2.237  0.7440  0.1832 -0.1289
  831SOL    HW2 2493   2.601   1.856   2.232  1.3270 -1.9644  0.8689
  832SOL     OW 2494   2.190   2.374   0.095  0.0215  0.6186 -0.0694
  832SOL    HW1 2495   2.134   2.337   0.027 -1.0539 -1.4217  1.7824
  832SOL    HW2 2496   2.275   2.334   0.081 -0.8046 -1.7535  1.1225
  833SOL     OW 2497   0.859   0.389   1.823  0.0629 -0.4370  0.1959
  833SOL    HW1 2498   0.918   0.332   1.873 -0.2087  0.9078  2.1821
  833SOL    HW2 2499   0.862   0.355   1.734  1.7810 -2.0259  0.7985
  834SOL     OW 2500   2.559   1.929   0.952  0.1866  0.1042  0.4819
  834SOL    HW1 2501   2.484   1.886   0.995 -0.8641  0.2295 -1.1594
  834SOL    HW2 2502   2.520   1.985   0.886  1.7311  0.6583  0.0028
  835SOL     OW 2503   1.496   2.431   1.415 -0.1847  0.4894 -0.3376
  835SOL    HW1 2504   1.517   2.375   1.489 -1.0261 -0.0606 -0.5097
  835SOL    HW2 2505   1.400   2.433   1.412 -0.2745 -1.6211 -2.9457
  836SOL     OW 2506   1.816   0.145   2.586  0.1779 -0.1785 -0.4261
  836SOL    HW1 2507   1.891   0.199   2.561  0.4168 -0.3969 -0.1938
  836SOL    HW2 2508   1.741   0.187   2.544  0.6015 -0.7153 -1.7833
  837SOL     OW 2509   1.090   1.117   1.246  0.2914 -0.2233  0.2731
  837SOL    HW1 2510   1.109   1.205   1.213 -1.8375 -0.0224 -0.5649
  837SOL    HW2 2511   1.011   1.090   1.199  0.4075 -2.2464  1.1461
  838SOL     OW 2512   2.297   2.638   0.172 -0.1340  0.3538 -0.1838
  838SOL    HW1 2513   2.367   2.641   0.107 -0.6176  0.4441 -0.7052
  838SOL    HW2 2514   2.246   2.560   0.150 -0.6477  0.7088 -0.2820
  839SOL     OW 2515   0.524   2.197   2.200  0.0844  0.5315 -0.2767
  839SOL    HW1 2516   0.570   2.116   2.221  0.9613  0.7739 -1.1379
  839SOL    HW2 2517   0.534   2.206   2.105 -0.5975  1.2963 -0.2920
  840SOL     OW 2518   0.506  -0.001   2.631 -0.2805  0.1346  0.0891
  840SOL    HW1 2519   0.545   0.050   2.560 -0.5049  0.2602  0.0562
  840SOL    HW2 2520   0.417  -0.018   2.602  0.4719 -2.3622 -1.0177
  841SOL     OW 2521   2.123   0.933   0.256  0.0574 -0.2802  0.8224
  841SOL    HW1 2522   2.167   0.889   0.328  1.7644 -0.6736 -0.3998
  841SOL    HW2 2523   2.160   0.893   0.177 -1.7189  0.1658 -0.2903
  842SOL     OW 2524   2.529   0.858   0.590  0.0720 -0.2234  0.0713
  842SOL    HW1 2525   2.487   0.773   0.576 -0.4419  0.2092 -1.1394
  842SOL    HW2 2526   2.519   0.904   0.506  2.3548  0.1687 -0.0733
  843SOL     OW 2527   0.599   1.232   0.731  0.8852 -0.2569  0.2499
  843SOL    HW1 2528   0.506   1.255   0.730  0.9822  0.1883 -1.5635
  843SOL    HW2 2529   0.600   1.137   0.742  0.0381 -0.7118 -2.7993
  844SOL     OW 2530   2.407   1.259   1.108  0.1953  0.1457 -0.3439
  844SOL    HW1 2531   2.453   1.342   1.102 -0.8274  0.6933 -0.9132
  844SOL    HW2 2532   2.325   1.273   1.060 -1.7095  0.0081  2.5940
  845SOL     OW 2533   2.835   2.826   2.650  0.0713  0.2118  0.0675
  845SOL    HW1 2534   2.751   2.797   2.617 -0.4877 -2.5614  3.3410
  845SOL    HW2 2535   2.900   2.772   2.605 -0.0078  1.1233 -1.1804
  846SOL     OW 2536   1.680   1.401   2.551  0.3093 -0.2682  0.6439
  846SOL    HW1 2537   1.653   1.347   2.476 -2.6186  0.4464  1.0558
  846SOL    HW2 2538   1.684   1.340   2.624  2.2935 -0.7990  0.1732
  847SOL     OW 2539   2.233   1.004   0.571  0.1815 -0.2260 -0.0501
  847SOL    HW1 2540   2.286   0.981   0.495  1.4400 -0.1715  0.7828
  847SOL    HW2 2541   2.264   1.090   0.598 -0.6986  0.0422  0.1484
  848SOL     OW 2542   1.699   0.576   2.428  0.4888  0.7061  0.6262
  848SOL    HW1 2543   1.725   0.563   2.520 -2.5810  0.1183  1.5066
  848SOL    HW2 2544   1.706   0.670   2.414  1.7862  0.7143  1.1505
  849SOL     OW 2545   1.545   1.701   0.357  0.2467  0.0955  0.5336
  849SOL    HW1 2546   1.606   1.663   0.294  1.4276 -0.2169  1.8105
  849SOL    HW2 2547   1.472   1.638   0.361  0.4093 -0.1398 -0.1237
  850SOL     OW 2548   0.107   3.008   0.231 -1.0026 -0.4319 -0.2379
  850SOL    HW1 2549   0.026   3.009   0.283 -1.2101 -1.7381 -0.4871
  850SOL    HW2 2550   0.134   2.916   0.232  0.3846 -0.0382 -0.3177
  851SOL     OW 2551   1.684   0.975   0.483 -0.3227 -0.2656  0.4402
  851SOL    HW1 2552   1.711   0.917   0.554 -0.6210  1.2731  1.8661
  851SOL    HW2 2553   1.728   1.058   0.501 -0.8180  0.3191 -0.8983
  852SOL     OW 2554   1.326   1.828   2.732  0.2213  0.0829  0.0280
  852SOL    HW1 2555   1.257   1.767   2.704 -0.7250  1.1103  0.0303
  852SOL    HW2 2556   1.310   1.841   2.825 -0.3395  1.2267 -0.2067
  853SOL     OW 2557   1.556   1.831   1.627  0.0482  0.6157 -0.4918
  853SOL    HW1 2558   1.513   1.807   1.709 -1.7539 -0.3878 -1.6514
  853SOL    HW2 2559   1.485   1.860   1.571  1.4011  2.5307 -1.3157
  854SOL     OW 2560   0.895   1.049   0.811 -0.2921  0.0818  0.0242
  854SOL    HW1 2561   0.905   1.075   0.902 -0.2713  1.5091 -0.3641
  854SOL    HW2 2562   0.805   1.017   0.805 -0.0774 -0.6629  0.6835
  855SOL     OW 2563   0.935   1.047   2.258  0.0294  0.1800  0.2279
  855SOL    HW1 2564   0.871   1.083   2.319 -1.6601  0.3989 -1.5648
  855SOL    HW2 2565   0.952   1.118   2.196 -1.0659 -1.0634 -1.6184
  856SOL     OW 2566   0.355   1.964   0.648 -0.1106 -0.2439 -0.6404
  856SOL    HW1 2567   0.397   2.047   0.668  0.9287 -1.3317  2.0694
  856SOL    HW2 2568   0.262   1.979   0.666 -0.0829  0.5598 -1.1097
  857SOL     OW 2569   0.312   0.552   0.850 -0.1210 -0.6611 -0.5827
  857SOL    HW1 2570   0.291   0.645   0.844 -1.2652 -0.9314 -1.0517
  857SOL    HW2 2571   0.383   0.539   0.787  0.3517 -0.0271 -0.1875
  858SOL     OW 2572   2.644   1.917   1.689  0.7374  0.3768 -0.0703
  858SOL    HW1 2573   2.636   1.924   1.784  1.6830 -0.1097  0.0570
  858SOL    HW2 2574   2.655   1.824   1.673 -1.1577  0.2347 -0.8275
  859SOL     OW 2575   0.622   0.621   0.308  0.2040 -0.1808 -0.9305
  859SOL    HW1 2576   0.614   0.560   0.235  1.4387  0.6586 -1.8050
  859SOL    HW2 2577   0.647   0.704   0.268  1.9882  0.0407  0.5245
  860SOL     OW 2578   2.268   0.817   2.087 -0.8098  0.3151  0.7010
  860SOL    HW1 2579   2.249   0.828   2.180  1.5792  1.5422  1.1213
  860SOL    HW2 2580   2.222   0.889   2.045 -0.7789  0.5745  1.1036
  861SOL     OW 2581   1.313   2.067   2.635 -0.1392  0.1372 -0.0075
  861SOL    HW1 2582   1.370   2.115   2.695 -1.3818 -1.4019  2.6320
  861SOL    HW2 2583   1.320   1.976   2.664 -2.6545 -0.3272 -0.6416
  862SOL     OW 2584   1.231   2.387   0.161  0.3770  0.6516 -0.4518
  862SOL    HW1 2585   1.268   2.328   0.094 -0.9447  0.6268 -1.1930
  862SOL    HW2 2586   1.179   2.330   0.217  2.1047  0.5440  1.1288
  863SOL     OW 2587   2.506   2.371   1.099 -0.4813  0.1515 -0.5139
  863SOL    HW1 2588   2.448   2.306   1.137  0.1631  0.2867  0.7396
  863SOL    HW2 2589   2.586   2.367   1.152 -0.6332  2.3538 -0.0107
  864SOL     OW 2590   2.683   2.872   0.506 -0.2445  0.7111  0.0663
  864SOL    HW1 2591   2.648   2.844   0.421 -1.8802 -2.0234  1.5036
  864SOL    HW2 2592   2.608   2.908   0.552  0.1476  0.2954  1.0546
  865SOL     OW 2593   2.574   1.144   0.865  0.1019  0.4055 -0.2633
  865SOL    HW1 2594   2.517   1.179   0.933 -1.6519 -0.9581 -0.9659
  865SOL    HW2 2595   2.523   1.074   0.824  2.4241 -1.1486 -0.6899
  866SOL     OW 2596   1.874   0.045   1.774  0.0960  0.3765 -0.0168
  866SOL    HW1 2597   1.847   0.037   1.682 -0.6100  0.8660  0.1361
  866SOL    HW2 2598   1.966   0.073   1.769  0.2009 -0.0442 -0.5663
  867SOL     OW 2599   2.171   1.200   1.972  0.1408  0.4965  0.4421
  867SOL    HW1 2600   2.118   1.154   2.037 -0.2526 -0.9771 -0.8588
  867SOL    HW2 2601   2.107   1.231   1.907  0.7029  0.0364 -0.3529
  868SOL     OW 2602   0.010   2.475   2.138  0.3504  0.6197 -0.4322
  868SOL    HW1 2603  -0.016   2.567   2.141  1.3179  0.9037 -0.4846
  868SOL    HW2 2604   0.104   2.476   2.157  0.6022 -0.2443 -1.5032
  869SOL     OW 2605   2.151   2.410   1.664  0.0235  0.6568  0.0464
  869SOL    HW1 2606   2.208   2.466   1.716 -0.2693  2.0819 -1.0996
  869SOL    HW2 2607   2.068   2.458   1.659 -1.4660 -1.4869  1.9175
  870SOL     OW 2608   0.935   0.866   0.198  0.1551  0.6291 -0.3789
  870SOL    HW1 2609   1.030   0.860   0.211 -0.0858 -2.3889  0.6602
  870SOL    HW2 2610   0.900   0.875   0.287 -0.6203  0.0282 -0.6254
  871SOL     OW 2611   0.258   0.928   0.131  0.1981 -0.2617 -0.2215
  871SOL    HW1 2612   0.248   0.877   0.051 -0.4560  0.4123 -0.5886
  871SOL    HW2 2613   0.267   1.019   0.100  0.6538 -0.0739  0.4390
  872SOL     OW 2614   2.252   1.682   0.581 -0.3582  0.0678  0.4051
  872SOL    HW1 2615   2.345   1.676   0.557 -0.5798 -2.5577 -0.1194
  872SOL    HW2 2616   2.221   1.761   0.538  1.0570 -0.4152 -1.6610
  873SOL     OW 2617   0.107   2.771   1.607  0.7412  0.2925  0.0310
  873SOL    HW1 2618   0.032   2.732   1.562 -0.3803  1.7317  0.6173
  873SOL    HW2 2619   0.117   2.719   1.686  1.3314 -0.8424 -0.7553
  874SOL     OW 2620   2.036   2.591   0.485  0.3924 -0.0953  0.1273
  874SOL    HW1 2621   2.046   2.511   0.432  0.4525  0.1853 -0.2872
  874SOL    HW2 2622   2.103   2.583   0.552 -0.2168 -0.8530  0.6792
  875SOL     OW 2623   2.929   0.587   1.074  0.2769  0.1099 -0.1062
  875SOL    HW1 2624   2.840   0.624   1.071  0.1760 -0.1589 -2.0856
  875SOL    HW2 2625   2.938   0.553   1.163 -1.0543  1.4195  0.5840
  876SOL     OW 2626   2.379   2.273   0.558 -0.3218  0.0562  0.0266
  876SOL    HW1 2627   2.314   2.216   0.599  0.0761 -0.5987 -0.2412
  876SOL    HW2 2628   2.328   2.347   0.524 -1.0573 -0.8992 -1.0058
  877SOL     OW 2629   1.265   2.181   0.699 -0.5490  0.6485 -0.5848
  877SOL    HW1 2630   1.224   2.246   0.755 -1.1628  0.5090 -0.8725
  877SOL    HW2 2631   1.269   2.101   0.752 -1.7255  0.3330 -0.9563
  878SOL     OW 2632   2.345   2.718   2.585  0.9088  0.0472 -0.1970
  878SOL    HW1 2633   2.260   2.755   2.560  0.2800 -0.4247  1.1591
  878SOL    HW2 2634   2.325   2.630   2.617  1.9530 -0.1973 -0.1845
  879SOL     OW 2635   0.848   0.240   1.306  0.5812 -0.4422 -0.2930
  879SOL    HW1 2636   0.872   0.177   1.238  1.5120 -0.5188  0.0889
  879SOL    HW2 2637   0.868   0.326   1.268  0.0990 -0.4150 -0.4998
  880SOL     OW 2638   0.190   2.837   2.651 -0.2449  0.2844  0.4025
  880SOL    HW1 2639   0.159   2.786   2.576 -2.0417  2.0201 -0.0972
  880SOL    HW2 2640   0.185   2.776   2.725  2.3269 -1.7198 -0.9170
  881SOL     OW 2641   1.709   1.574   1.105  0.4009 -0.1050  0.4884
  881SOL    HW1 2642   1.661   1.497   1.075  0.0974  0.9532 -1.9475
  881SOL    HW2 2643   1.755   1.605   1.028  0.7518  1.9871  1.4761
  882SOL     OW 2644   1.875   2.228   0.489  0.0326  0.8929  0.4131
  882SOL    HW1 2645   1.901   2.225   0.581  1.3234  0.4903  0.0577
  882SOL    HW2 2646   1.940   2.285   0.448 -0.4075  0.8944 -0.2884
  883SOL     OW 2647   2.172   0.659   0.113  0.0911  0.0765 -0.0418
  883SOL    HW1 2648   2.175   0.584   0.172  0.0060 -1.2438 -1.6655
  883SOL    HW2 2649   2.079   0.677   0.100  0.1109  0.5818  0.4580
  884SOL     OW 2650   1.379   1.105   0.872  0.0397 -0.1939 -0.0189
  884SOL    HW1 2651   1.397   1.130   0.781 -0.5392 -0.5647 -0.2435
  884SOL    HW2 2652   1.358   1.187   0.916  0.5085  0.0100 -0.1753
   2.99820   2.99820   2.99820
